,ind,max_valorX,max_valorY,max_valorZ,media,formula,Ehull,HF,Gap,Energy,natoms,nspecies,thickness,uc_area,average_atomic_number,average_valence_number,average_electronegativity
1056,1098,0.5207499999999925,0.44300000000001205,0.41100000000000136,0.458250000000002,SbAs,0.039,0.039,1.262,-8.991,2,2,1.513,12.892,42.0,15.0,2.115
1057,1099,0.18000000000006366,0.18000000000006366,0.18000000000006366,0.18000000000006366,In2O2F2,0.057,-2.035,2.236,-31.157,6,3,4.693,13.986,22.0,8.666666666666666,3.0666666666666664
1058,1100,1.537499999999909,1.537499999999909,1.537499999999909,1.537499999999909,In2S2F2,0.086,-1.404,1.012,-25.278,6,3,4.539,18.783,24.666666666666668,8.666666666666666,2.78
1059,1101,0.347500000000025,0.17250000000001364,0.5124999999999886,0.3441666666666758,AuI,0.149,0.051,0.054,-4.506,2,2,0.0,19.891,66.0,14.0,2.6
1060,1102,0.24750000000005912,0.24750000000005912,0.24750000000005912,0.24750000000005912,In2Se2F2,0.038,-1.426,2.237,-24.22,6,3,2.953,25.304,30.666666666666668,12.0,2.77
1061,1103,0.64224999999999,1.8584999999999923,1.7510000000000048,1.4172499999999957,BN,0.0,-1.292,4.667,-17.642,2,2,0.0,5.457,6.0,4.0,2.54
1062,1104,9.745000000000005,9.745000000000005,9.745000000000005,9.745000000000005,In2Te2F2,0.078,-1.266,1.864,-22.705,6,3,4.178,24.394,36.666666666666664,12.0,2.6199999999999997
1063,1105,1.5425000000000182,1.5425000000000182,1.5425000000000182,1.5425000000000182,Ir2S2F2,0.0,-0.92,0.462,-35.4,6,3,4.731,15.775,34.0,7.333333333333333,2.92
1064,1106,6.107499999999959,6.107499999999959,6.107499999999959,6.107499999999959,Ir2S2F2,0.043,-0.877,1.001,-35.14,6,3,2.262,20.499,34.0,7.333333333333333,2.92
1065,1107,6.002499999999941,6.002499999999941,6.002499999999941,6.002499999999941,Ir2Se2F2,0.09,-0.792,1.068,-33.442,6,3,2.439,21.774,40.0,10.666666666666666,2.91
1066,1108,0.3407500000000141,0.23750000000001137,0.18600000000000705,0.25475000000001086,GeS,0.053,-0.224,2.45,-9.042,2,2,1.361,10.538,24.0,10.0,2.295
1067,1109,0.5900000000000034,0.36299999999999955,0.4685000000000059,0.47383333333333627,GeSe,0.04,-0.19,2.218,-8.379,2,2,1.447,11.64,33.0,15.0,2.28
1068,1110,0.49824999999998454,0.3205000000000098,0.42150000000000887,0.4134166666666677,TeGe,0.087,-0.006,1.474,-7.733,2,2,1.56,13.467,42.0,15.0,2.0549999999999997
1069,1111,1.0500000000000682,1.0500000000000682,1.0500000000000682,1.0500000000000682,Si2N2F2,0.0,-1.977,5.091,-42.536,6,3,4.375,13.94,10.0,5.333333333333333,2.973333333333333
1070,1112,0.14999999999997726,0.3575000000000159,0.18000000000000682,0.22916666666666666,HgSe,0.157,-0.089,0.117,-4.545,2,2,0.394,17.256,57.0,14.0,2.275
1071,1113,0.17749999999995225,0.3725000000000023,0.1349999999999909,0.22833333333331515,HgTe,0.165,-0.038,0.153,-4.166,2,2,0.513,19.388,66.0,14.0,2.05
1072,1114,1.0025000000000546,1.0025000000000546,1.0025000000000546,1.0025000000000546,Ti2N2F2,0.0,-2.297,0.729,-47.039,6,3,4.336,12.066,12.666666666666666,5.333333333333333,2.8533333333333335
1073,1115,0.9125000000000227,0.9125000000000227,0.9125000000000227,0.9125000000000227,Zr2N2F2,0.02,-2.566,2.342,-50.078,6,3,5.133,10.912,18.666666666666668,5.333333333333333,2.783333333333333
1074,1116,1.5625,1.5625,1.5625,1.5625,Ni2S2F2,0.057,-0.965,0.0,-31.614,6,3,4.228,14.586,17.666666666666668,7.666666666666667,2.8233333333333337
1075,1117,0.6929999999999836,0.42549999999999955,0.5335000000000036,0.5506666666666623,PbTe,0.198,-0.224,0.93,-7.41,2,2,1.685,16.191,67.0,15.0,2.215
1076,1118,0.8799999999999955,0.8799999999999955,0.8799999999999955,0.8799999999999955,Ni2Se2F2,0.058,-0.944,0.0,-30.294,6,3,4.273,15.778,23.666666666666668,11.0,2.813333333333333
1077,1119,0.5345000000000084,0.3605000000000018,0.30049999999999955,0.39850000000000324,SnS,0.118,-0.34,2.289,-8.814,2,2,1.46,12.192,33.0,10.0,2.27
1078,1120,0.8032499999999914,0.507000000000005,0.5282499999999857,0.6128333333333273,SnSe,0.098,-0.333,2.177,-8.206,2,2,1.559,13.218,42.0,15.0,2.255
1079,1121,1.5225000000000364,1.5225000000000364,1.5225000000000364,1.5225000000000364,Rh2O2F2,0.026,-1.125,0.121,-34.469,6,3,4.454,12.684,20.666666666666668,7.333333333333333,3.233333333333333
1080,1122,0.664749999999998,0.41175000000001205,0.519500000000022,0.5320000000000107,SnTe,0.119,-0.159,1.582,-7.58,2,2,1.686,15.079,51.0,15.0,2.0300000000000002
1081,1123,0.16499999999996362,0.16499999999996362,0.16499999999996362,0.16499999999996362,Sc2O2F2,0.043,-3.807,4.62,-45.582,6,3,4.518,12.969,12.666666666666666,5.333333333333333,2.9266666666666663
1082,1127,0.18999999999994088,0.18999999999994088,0.18999999999994088,0.18999999999994088,Tl2O2F2,0.076,-1.231,0.583,-25.805,6,3,4.929,15.183,32.666666666666664,8.666666666666666,3.1533333333333338
1083,1128,0.7450000000000045,0.45249999999998636,0.45249999999998636,0.5499999999999924,Y2O2F2,0.0,-3.923,5.173,-46.342,6,3,5.162,11.842,18.666666666666668,5.333333333333333,2.8800000000000003
1084,1132,1.5674999999999955,1.5674999999999955,1.5674999999999955,1.5674999999999955,Pd2S2F2,0.087,-0.843,0.0,-24.026,6,3,4.41,16.825,23.666666666666668,7.666666666666667,2.92
1085,1133,1.5674999999999955,1.5674999999999955,1.5674999999999955,1.5674999999999955,Pd2Se2F2,0.051,-0.873,0.0,-23.019,6,3,4.524,17.993,29.666666666666668,11.0,2.91
1086,1134,1.5600000000000591,1.5600000000000591,1.5600000000000591,1.5600000000000591,Pt2Se2F2,0.086,-0.85,0.0,-27.947,6,3,4.468,18.571,40.333333333333336,11.0,2.936666666666667
1087,1135,5.665000000000077,5.665000000000077,5.665000000000077,5.665000000000077,Rh2S2F2,0.0,-1.1,0.904,-32.226,6,3,2.308,19.898,23.333333333333332,7.333333333333333,2.9466666666666668
1088,1137,1.5474999999999,1.5474999999999,1.5474999999999,1.5474999999999,Rh2S2F2,0.039,-1.061,0.017,-31.989,6,3,4.751,15.653,23.333333333333332,7.333333333333333,2.9466666666666668
1089,1138,1.6575000000000273,1.6575000000000273,1.6575000000000273,1.6575000000000273,Rh2S2F2,0.095,-1.005,0.107,-31.655,6,3,4.063,17.319,23.333333333333332,7.333333333333333,2.9466666666666668
1090,1139,0.8599999999999,0.7199999999999136,0.7649999999999864,0.7816666666666,Rh2Se2F2,0.0,-1.058,0.97,-30.781,6,3,2.476,21.1,29.333333333333332,10.666666666666666,2.936666666666667
1091,1141,0.4874999999999545,0.42999999999995,0.42999999999995,0.44916666666661814,Rh2Se2F2,0.003,-1.055,1.355,-30.766,6,3,2.419,20.527,29.333333333333332,10.666666666666666,2.936666666666667
1092,1143,1.544999999999959,1.544999999999959,1.544999999999959,1.544999999999959,Rh2Se2F2,0.074,-0.984,0.0,-30.337,6,3,4.841,17.065,29.333333333333332,10.666666666666666,2.936666666666667
1093,1144,1.1450000000000955,0.7700000000000955,0.8075000000000045,0.9075000000000651,Rh2Te2F2,0.097,-1.017,0.942,-29.982,6,3,2.645,22.972,35.333333333333336,10.666666666666666,2.7866666666666666
1094,1145,6.422500000000014,6.422500000000014,6.422500000000014,6.422500000000014,Sb2S2F2,0.071,-1.178,2.887,-27.207,6,3,1.833,32.365,25.333333333333332,9.333333333333334,2.8699999999999997
1095,1147,1.5125000000000455,1.5125000000000455,1.5125000000000455,1.5125000000000455,Sc2S2F2,0.07,-2.839,1.613,-37.68,6,3,4.366,17.624,15.333333333333334,5.333333333333333,2.64
1096,1152,79.73000000000002,79.64499999999998,78.69999999999999,79.35833333333333,Y2S2F2,0.07,-3.024,2.693,-38.858,6,3,4.689,20.086,21.333333333333332,5.333333333333333,2.5933333333333333
1097,1153,1.4850000000000136,1.4850000000000136,1.4850000000000136,1.4850000000000136,Zr2S2F2,0.0,-2.503,0.0,-41.151,6,3,4.041,17.752,21.666666666666668,5.666666666666667,2.6300000000000003
1098,1154,1.5049999999999955,1.5049999999999955,1.5049999999999955,1.5049999999999955,Sc2Se2F2,0.0,-2.691,0.859,-35.605,6,3,4.288,18.941,21.333333333333332,8.666666666666666,2.6300000000000003
1099,1155,1.4800000000000182,1.4800000000000182,1.4800000000000182,1.4800000000000182,Ti2Se2F2,0.088,-2.109,0.0,-36.174,6,3,3.806,16.867,21.666666666666668,9.0,2.69
1100,1156,4.322499999999991,4.322499999999991,4.322499999999991,4.322499999999991,Y2Se2F2,0.061,-2.9,1.402,-36.92,6,3,5.554,13.784,27.333333333333332,8.666666666666666,2.5833333333333335
1101,1157,1.49249999999995,1.49249999999995,1.49249999999995,1.49249999999995,Zr2Se2F2,0.038,-2.338,0.0,-38.975,6,3,3.966,18.79,27.666666666666668,9.0,2.6199999999999997
1102,1158,1.572499999999991,1.572499999999991,1.6625000000000227,1.6025000000000016,Al2S2,0.006,-0.886,2.085,-19.175,4,2,4.737,11.124,14.5,4.5,2.095
1103,1159,0.5200000000000387,0.5200000000000387,0.5200000000000387,0.5200000000000387,Al2S2,0.015,-0.877,2.142,-19.14,4,2,4.724,11.212,14.5,4.5,2.095
1104,1160,1.152499999999975,1.152499999999975,1.152499999999975,1.152499999999975,Al2S2,0.047,-0.845,1.927,-19.013,4,2,2.947,17.934,14.5,4.5,2.095
1105,1161,2.5049999999999955,2.5049999999999955,2.5049999999999955,2.5049999999999955,Se2Al2,0.0,-0.717,1.997,-17.311,4,2,4.923,12.359,23.5,9.5,2.08
1106,1162,4.194999999999993,4.194999999999993,4.194999999999993,4.194999999999993,Se2Al2,0.006,-0.711,2.138,-17.287,4,2,4.899,12.454,23.5,9.5,2.08
1107,1163,1.8075000000000045,1.8075000000000045,1.8075000000000045,1.8075000000000045,Se2Al2,0.032,-0.685,1.642,-17.183,4,2,3.221,19.06,23.5,9.5,2.08
1108,1164,0.9325000000000045,0.9325000000000045,0.9325000000000045,0.9325000000000045,I2Fe2S2,0.145,-0.188,0.0,-30.324,6,3,5.889,15.488,31.666666666666668,10.333333333333334,2.356666666666667
1109,1165,2.6924999999999955,2.6924999999999955,2.7524999999999977,2.7124999999999964,Te2Al2,0.0,-0.376,1.748,-15.39,4,2,5.133,14.667,32.5,9.5,1.855
1110,1166,1.2274999999999636,1.2274999999999636,1.2274999999999636,1.2274999999999636,Te2Al2,0.003,-0.373,1.955,-15.378,4,2,5.1,14.787,32.5,9.5,1.855
1111,1167,2.2725000000000364,2.2725000000000364,2.2725000000000364,2.2725000000000364,Te2Al2,0.033,-0.343,1.473,-15.259,4,2,3.605,21.096,32.5,9.5,1.855
1112,1168,0.009999999999990905,0.03750000000002274,0.12250000000000227,0.05666666666667197,K2Fe2P2,0.0,-0.428,0.0,-33.822,6,3,5.885,14.504,20.0,4.666666666666667,1.6133333333333333
1113,1169,0.20000000000004547,0.3125,0.5175000000000409,0.34333333333336213,Fe2P2Li2,0.112,-0.535,0.0,-35.801,6,3,3.969,13.421,14.666666666666666,4.666666666666667,1.6666666666666667
1114,1170,1.5900000000000318,1.5900000000000318,1.6100000000000136,1.5966666666666924,Bi2As2,0.067,0.067,0.173,-18.405,4,2,2.914,19.554,58.0,15.0,2.1
1115,1171,0.34250000000002956,0.24250000000000682,1.3899999999999864,0.6583333333333409,Bi2As2,0.072,0.072,0.209,-18.385,4,2,2.977,19.623,58.0,15.0,2.1
1116,1172,0.6949999999999932,0.839999999999975,1.7124999999999773,1.0824999999999818,Sb2Fe2Li2,0.15,-0.151,0.0,-31.583,6,3,4.375,14.808,26.666666666666668,8.0,1.6199999999999999
1117,1173,0.03499999999996817,0.1150000000000091,0.3675000000000068,0.17249999999999469,Fe2Na2P2,0.014,-0.421,0.0,-33.953,6,3,4.908,14.043,17.333333333333332,4.666666666666667,1.6500000000000001
1118,1174,1.11749999999995,0.24249999999994998,0.6200000000000045,0.6599999999999682,Sb2As2,0.088,0.088,0.754,-17.788,4,2,1.929,23.944,42.0,15.0,2.115
1119,1175,0.8025000000000091,0.7400000000000091,0.775000000000091,0.7725000000000364,Mo3VSe8,0.019,-0.689,0.0,-78.261,12,3,3.399,38.214,35.083333333333336,12.583333333333334,2.375833333333333
1120,1176,1.8174999999999955,0.972500000000025,1.7800000000000296,1.52333333333335,Te2As2,0.061,0.047,0.934,-15.55,4,2,2.448,24.002,42.5,15.5,2.14
1121,1177,0.4975000000000023,0.4975000000000023,0.4975000000000023,0.4975000000000023,Sr2Fe2Si2,0.129,-0.235,0.0,-33.641,6,3,4.926,16.496,26.0,4.666666666666667,1.5599999999999998
1122,1178,0.33899999999999864,0.20050000000000523,0.14349999999998886,0.22766666666666424,Tl2As2,0.044,0.044,0.0,-14.145,4,2,4.801,16.244,57.0,14.0,2.1100000000000003
1123,1179,0.6599999999999682,0.6599999999999682,0.6599999999999682,0.6599999999999682,Ga2Ge2S2,0.045,-0.398,0.046,-25.382,6,3,7.839,12.737,26.333333333333332,11.0,2.1333333333333333
1124,1180,1.6024999999999636,1.6024999999999636,1.6024999999999636,1.6024999999999636,Ga2Ge2Se2,0.007,-0.393,0.39,-24.164,6,3,8.054,13.421,32.333333333333336,14.333333333333334,2.123333333333333
1125,1181,0.5599999999999454,0.5499999999999545,0.5499999999999545,0.5533333333332848,Au2Br2,0.0,-0.159,1.985,-10.067,4,2,4.014,18.612,57.0,14.0,2.75
1126,1182,1.7274999999999636,1.7274999999999636,1.7274999999999636,1.7274999999999636,Te2Ga2Ge2,0.0,-0.252,0.674,-22.759,6,3,8.311,14.675,38.333333333333336,14.333333333333334,1.9733333333333334
1127,1183,1.17999999999995,1.204999999999984,1.1849999999999454,1.1899999999999598,I2Ga2S2,0.008,-0.589,1.045,-20.454,6,3,6.519,20.737,33.333333333333336,12.0,2.35
1128,1184,8.03000000000003,8.03000000000003,8.03000000000003,8.03000000000003,I2Ga2S2,0.087,-0.51,0.084,-19.981,6,3,3.477,25.553,33.333333333333336,12.0,2.35
1129,1185,0.7450000000000045,0.7374999999999545,0.7374999999999545,0.7399999999999712,Au2Cl2,0.0,-0.237,2.118,-10.777,4,2,3.593,19.06,48.0,9.0,2.85
1130,1186,0.7825000000000273,0.7699999999999818,0.7699999999999818,0.7741666666666637,Au2Cl2,0.037,-0.2,1.118,-10.63,4,2,4.813,14.112,48.0,9.0,2.85
1131,1187,1.259999999999991,1.259999999999991,1.259999999999991,1.259999999999991,I2Ga2S2,0.132,-0.465,0.833,-19.709,6,3,6.105,18.895,33.333333333333336,12.0,2.35
1132,1188,0.5024999999999409,0.5575000000000045,0.5074999999999363,0.5224999999999606,I2Ga2Se2,0.007,-0.567,1.152,-19.131,6,3,6.403,22.584,39.333333333333336,15.333333333333334,2.3400000000000003
1133,1189,0.30750000000000455,0.44500000000005,0.3350000000000364,0.3625000000000303,Te2I2Ga2,0.003,-0.444,1.369,-17.838,6,3,6.234,25.797,45.333333333333336,15.333333333333334,2.19
1134,1190,3.5925000000000296,3.5925000000000296,3.5925000000000296,3.5925000000000296,Y2I2Ga2,0.0,-1.07,0.0,-24.568,6,3,8.023,15.392,41.0,11.0,1.8966666666666665
1135,1191,0.7925000000000182,0.7925000000000182,0.7925000000000182,0.7925000000000182,Ga2Si2S2,0.021,-0.422,1.14,-27.292,6,3,7.757,12.194,20.333333333333332,7.666666666666667,2.0966666666666667
1136,1192,1.69500000000005,1.69500000000005,1.69500000000005,1.69500000000005,Ga2Se2Si2,0.006,-0.395,1.412,-25.94,6,3,7.964,12.85,26.333333333333332,11.0,2.0866666666666664
1137,1193,0.8475000000000819,0.7850000000000819,0.8224999999999909,0.8183333333333849,W3VSe8,0.017,-0.606,0.0,-78.108,12,3,3.411,38.301,43.083333333333336,12.583333333333334,2.4258333333333333
1138,1194,0.4900000000000091,0.47249999999996817,0.47249999999996817,0.4783333333333151,Au2I2,0.0,-0.098,1.808,-9.61,4,2,3.627,23.04,66.0,14.0,2.6
1139,1195,1.6825000000000045,1.6825000000000045,1.6825000000000045,1.6825000000000045,Te2Ga2Si2,0.032,-0.217,1.268,-24.317,6,3,8.219,14.042,32.333333333333336,11.0,1.9366666666666668
1140,1196,2.2399999999999523,2.2399999999999523,2.2399999999999523,2.2399999999999523,Sn2Te2Ga2,0.065,-0.184,0.191,-21.435,6,3,8.753,16.527,44.333333333333336,14.333333333333334,1.956666666666667
1141,1197,0.7624999999999318,0.7624999999999318,0.7624999999999318,0.7624999999999318,Au2O2,0.007,-0.01,0.174,-16.547,4,2,1.475,18.967,43.5,8.5,2.99
1142,1198,0.875,0.875,0.875,0.875,W3Te8V,0.035,-0.147,0.0,-70.383,12,3,3.853,43.575,55.083333333333336,12.583333333333334,2.1258333333333335
1143,1199,1.5425000000000182,1.57000000000005,1.552500000000009,1.5550000000000257,Au2S2,0.0,-0.091,1.216,-14.78,4,2,2.314,22.261,47.5,8.5,2.56
1144,1200,61.9,61.9,61.9,61.9,Hf2Ge2S2,0.059,-0.973,0.0,-38.039,6,3,6.375,12.492,40.0,8.0,1.9633333333333332
1145,1201,61.9,61.9,61.9,61.9,Hf2Ge2Se2,0.009,-0.901,0.0,-36.418,6,3,6.641,13.041,46.0,11.333333333333334,1.9533333333333331
1146,1202,61.9,61.9,61.9,61.9,Hf2Te2Ge2,0.0,-0.672,0.0,-34.488,6,3,6.98,14.025,52.0,11.333333333333334,1.8033333333333335
1147,1203,2.509999999999991,2.509999999999991,2.509999999999991,2.509999999999991,I2Ge2S2,0.169,-0.186,0.0,-21.258,6,3,6.183,19.128,33.666666666666664,12.333333333333334,2.4166666666666665
1148,1204,0.75,0.75,0.75,0.75,In2Ge2S2,0.003,-0.367,0.414,-24.917,6,3,8.421,13.806,32.333333333333336,11.0,2.1233333333333335
1149,1205,1.5625,1.732499999999959,1.6275000000000546,1.6408333333333378,Au2Se2,0.007,-0.116,0.956,-13.688,4,2,2.592,23.606,56.5,13.5,2.545
1150,1206,1.75,1.75,1.75,1.75,In2Ge2Se2,0.0,-0.359,0.553,-23.675,6,3,8.675,14.439,38.333333333333336,14.333333333333334,2.1133333333333333
1151,1207,1.8949999999999818,1.8949999999999818,1.8949999999999818,1.8949999999999818,In2Te2Ge2,0.025,-0.208,0.0,-22.216,6,3,8.964,15.709,44.333333333333336,14.333333333333334,1.9633333333333332
1152,1208,0.5324999999999136,0.25,0.2699999999999818,0.35083333333329847,Au2Te2,0.0,-0.105,0.618,-13.09,4,2,2.792,26.609,65.5,13.5,2.3200000000000003
1153,1209,0.33499999999997954,0.3224999999999909,0.2674999999999841,0.3083333333333182,Zr2Ge2S2,0.089,-1.092,0.0,-38.549,6,3,6.383,12.635,29.333333333333332,8.0,1.9733333333333334
1154,1210,0.7100000000000364,0.4674999999999727,0.7524999999999409,0.6433333333333167,Au2Te2,0.139,0.034,0.037,-12.533,4,2,3.081,18.983,65.5,13.5,2.3200000000000003
1155,1211,0.9624999999999773,0.9375,0.9049999999999727,0.9349999999999833,Zr2Ge2Se2,0.043,-1.02,0.0,-36.924,6,3,6.644,13.187,35.333333333333336,11.333333333333334,1.9633333333333332
1156,1212,1.0400000000000205,1.00750000000005,0.9925000000000068,1.0133333333333592,Zr2Te2Ge2,0.01,-0.794,0.0,-35.01,6,3,7.005,14.141,41.333333333333336,11.333333333333334,1.8133333333333332
1157,1213,1.3075000000000045,1.3075000000000045,1.3075000000000045,1.3075000000000045,I2Sc2H2,0.0,-0.933,0.0,-24.524,6,3,6.36,12.28,25.0,7.0,2.0733333333333337
1158,1214,0.3149999999999977,0.3550000000000182,0.25499999999999545,0.3083333333333371,Sr2I2H2,0.0,-1.207,3.827,-20.198,6,3,5.858,18.29,30.666666666666668,6.666666666666667,1.9366666666666668
1159,1215,0.05000000000001137,0.05000000000001137,0.040000000000020464,0.04666666666668107,K2O2H2,0.013,-1.356,2.867,-27.469,6,3,4.878,15.711,9.333333333333334,2.6666666666666665,2.1533333333333333
1160,1216,0.037499999999965894,0.040000000000020464,0.05000000000001137,0.04249999999999924,K2O2H2,0.04,-1.329,3.26,-27.31,6,3,3.802,26.033,9.333333333333334,2.6666666666666665,2.1533333333333333
1161,1217,0.18250000000000455,0.18250000000000455,0.18250000000000455,0.18250000000000455,K2S2H2,0.042,-0.766,3.359,-21.837,6,3,4.472,38.03,12.0,2.6666666666666665,1.8666666666666665
1162,1218,0.1349999999999909,0.1349999999999909,0.1349999999999909,0.1349999999999909,K2Se2H2,0.0,-0.668,2.947,-20.059,6,3,4.712,41.498,18.0,6.0,1.8566666666666667
1163,1219,0.15749999999997044,0.15749999999997044,0.15749999999997044,0.15749999999997044,Te2K2H2,0.087,-0.477,2.637,-18.362,6,3,4.994,48.216,24.0,6.0,1.7066666666666668
1164,1220,0.05000000000001137,0.05000000000001137,0.052500000000009095,0.050833333333343944,Li2O2H2,0.0,-1.584,3.935,-30.179,6,3,3.615,13.112,4.0,2.6666666666666665,2.2066666666666666
1165,1221,0.27499999999997726,0.25499999999999545,0.25750000000005,0.26250000000000756,WMo3S8,0.0,-0.912,1.559,-88.656,12,3,3.13,35.159,27.333333333333332,6.0,2.4566666666666666
1166,1222,0.17500000000001137,0.17500000000001137,0.17500000000001137,0.17500000000001137,S2Li2H2,0.022,-0.778,3.969,-23.255,6,3,4.736,20.605,6.666666666666667,2.6666666666666665,1.92
1167,1223,0.12749999999999773,0.12749999999999773,0.12749999999999773,0.12749999999999773,Se2Li2H2,0.001,-0.635,3.4,-21.202,6,3,5.049,23.044,12.666666666666666,6.0,1.9100000000000001
1168,1224,0.037499999999965894,0.03999999999996362,0.03249999999997044,0.03666666666663332,Na2O2H2,0.0,-1.365,2.802,-27.7,6,3,4.596,11.666,6.666666666666667,2.6666666666666665,2.19
1169,1225,2.2352500000000077,2.2394999999999925,2.2352500000000077,2.2366666666666695,Bi2Ga2,0.068,0.068,0.031,-14.882,4,2,3.753,18.863,57.0,14.0,1.915
1170,1226,0.017499999999984084,0.01999999999998181,0.024999999999977263,0.020833333333314386,Na2O2H2,0.0,-1.364,3.504,-27.697,6,3,3.677,18.951,6.666666666666667,2.6666666666666665,2.19
1171,1227,0.17500000000001137,0.17500000000001137,0.17500000000001137,0.17500000000001137,Na2S2H2,0.004,-0.709,3.56,-21.675,6,3,4.575,28.516,9.333333333333334,2.6666666666666665,1.9033333333333335
1172,1228,2.2150000000000034,2.218999999999994,2.2150000000000034,2.2163333333333335,Bi2In2,0.094,0.092,0.037,-14.505,4,2,3.914,22.082,66.0,14.0,1.9