,ind,max_valorX,max_valorY,max_valorZ,media,formula,Ehull,HF,Gap,Energy,natoms,nspecies,thickness,uc_area,average_atomic_number,average_valence_number,average_electronegativity
710,746,1.6175000000000068,1.6175000000000068,1.6175000000000068,1.6175000000000068,Sc2Br2H2,0.0,-1.216,0.0,-26.433,6,3,6.029,11.187,19.0,7.0,2.1733333333333333
711,747,0.28750000000002274,0.31749999999999545,0.28249999999997044,0.29583333333332956,Sr2Br2H2,0.0,-1.412,4.354,-21.638,6,3,5.524,16.845,24.666666666666668,6.666666666666667,2.0366666666666666
712,748,2.027499999999918,2.027499999999918,2.027499999999918,2.027499999999918,Sc4Cl2N3,0.0,-2.008,0.0,-65.336,9,3,10.939,9.312,15.444444444444445,4.555555555555555,2.3200000000000003
713,749,61.9,61.9,61.9,61.9,Hf2I2Br2,0.054,-0.922,0.733,-26.672,6,3,4.329,23.9,53.333333333333336,12.666666666666666,2.3066666666666666
714,750,61.9,61.9,61.9,61.9,Hf2Br2N2,0.0,-1.695,2.064,-45.058,6,3,5.911,14.858,38.0,8.666666666666666,2.433333333333333
715,751,1.4599999999999227,1.4599999999999227,1.4599999999999227,1.4599999999999227,Ti4Cl2N3,0.0,-1.658,0.0,-70.312,9,3,10.409,8.378,15.88888888888889,5.0,2.4000000000000004
716,752,61.9,61.9,61.9,61.9,Hf2Br2N2,0.007,-1.688,1.955,-45.014,6,3,6.58,11.447,38.0,8.666666666666666,2.433333333333333
717,754,1.669999999999959,1.669999999999959,1.7825000000000273,1.7074999999999818,Zr4Cl2N3,0.012,-1.762,0.0,-74.094,9,3,11.256,9.49,23.88888888888889,5.0,2.3066666666666666
718,755,61.9,61.9,61.9,61.9,Hf2Br2S2,0.0,-1.497,0.0,-35.319,6,3,5.605,18.522,41.0,9.0,2.28
719,756,61.9,61.9,61.9,61.9,Hf2Se2Br2,0.0,-1.314,0.0,-33.034,6,3,5.615,19.552,47.0,12.333333333333334,2.27
720,757,61.9,61.9,61.9,61.9,Hf2Te2Br2,0.0,-0.999,0.0,-30.584,6,3,5.576,21.54,53.0,12.333333333333334,2.12
721,758,2.42999999999995,2.42999999999995,2.42999999999995,2.42999999999995,Hg2I2Br2,0.006,-0.438,1.469,-10.526,6,3,4.841,32.623,56.0,15.333333333333334,2.54
722,759,12.197499999999764,12.197499999999764,12.197499999999764,12.197499999999764,Hg2I2Br2,0.011,-0.433,1.585,-10.496,6,3,3.413,38.544,56.0,15.333333333333334,2.54
723,760,7.814999999999998,7.814999999999998,7.814999999999998,7.814999999999998,I2Br2Mg2,0.06,-1.247,3.17,-16.842,6,3,3.174,36.211,33.333333333333336,12.0,2.31
724,761,3.8975000000000364,3.8975000000000364,3.8975000000000364,3.8975000000000364,I2Br2Mg2,0.062,-1.245,3.152,-16.833,6,3,5.035,30.466,33.333333333333336,12.0,2.31
725,762,5.232499999999959,5.232499999999959,5.232499999999959,5.232499999999959,Pb2I2Br2,0.0,-0.831,1.749,-18.628,6,3,3.517,36.292,56.666666666666664,16.0,2.65
726,763,3.935000000000059,3.935000000000059,3.935000000000059,3.935000000000059,Pd2I2Br2,0.028,-0.286,0.585,-15.484,6,3,2.791,32.512,44.666666666666664,14.666666666666666,2.606666666666667
727,764,5.210000000000036,5.210000000000036,5.210000000000036,5.210000000000036,Sn2I2Br2,0.083,-0.585,1.958,-17.748,6,3,3.345,37.582,46.0,16.0,2.526666666666667
728,765,61.9,61.9,61.9,61.9,Hf4C3F2,0.006,-1.684,0.0,-76.012,9,3,10.37,9.469,36.0,4.666666666666667,2.312222222222222
729,766,1.6625000000000227,1.8900000000001,1.6299999999999955,1.7275000000000393,Zr2I2Br2,0.021,-1.104,0.484,-27.558,6,3,4.239,24.539,42.666666666666664,12.666666666666666,2.316666666666667
730,767,0.3725000000000591,0.5150000000001,0.3725000000000591,0.42000000000007276,In2Br2O2,0.0,-1.295,2.29,-26.715,6,3,5.965,15.137,30.666666666666668,12.0,2.7266666666666666
731,768,6.8974999999999795,6.922500000000014,6.8974999999999795,6.905833333333324,In2Br2S2,0.016,-0.703,1.908,-21.069,6,3,6.012,20.553,33.333333333333336,12.0,2.44
732,769,2.49249999999995,2.49249999999995,2.49249999999995,2.49249999999995,Sc4C3F2,0.157,-1.463,0.0,-62.639,9,3,10.402,9.225,13.333333333333334,4.222222222222222,2.338888888888889
733,770,6.0674999999999955,6.0674999999999955,6.0674999999999955,6.0674999999999955,In2Br2S2,0.021,-0.698,1.749,-21.037,6,3,6.291,22.932,33.333333333333336,12.0,2.44
734,771,2.542500000000018,2.542500000000018,2.542500000000018,2.542500000000018,Ti4C3F2,0.0,-1.635,0.0,-72.307,9,3,9.711,8.209,13.777777777777779,4.666666666666667,2.4188888888888886
735,772,8.225000000000023,8.225000000000023,8.225000000000023,8.225000000000023,In2Se2Br2,0.013,-0.695,1.736,-19.829,6,3,6.016,24.82,39.333333333333336,15.333333333333334,2.43
736,773,0.3625000000000682,0.39000000000010004,0.3625000000000682,0.37166666666674547,In2Se2Br2,0.05,-0.657,1.23,-19.604,6,3,5.983,22.318,39.333333333333336,15.333333333333334,2.43
737,774,1.6000000000003638,1.6000000000003638,1.6000000000003638,1.6000000000003638,Y4C3F2,0.182,-1.363,0.0,-61.866,9,3,11.091,10.964,21.333333333333332,4.222222222222222,2.2766666666666664
738,775,2.857499999999959,2.857499999999959,2.857499999999959,2.857499999999959,Zr4C3F2,0.005,-1.717,0.0,-75.899,9,3,10.434,9.62,21.77777777777778,4.666666666666667,2.3255555555555554
739,776,2.7100000000000364,2.7100000000000364,2.7100000000000364,2.7100000000000364,Cr4N3F2,0.033,-1.09,0.0,-75.678,9,3,9.131,7.84,15.0,5.888888888888889,2.635555555555556
740,777,8.774999999999977,8.774999999999977,8.774999999999977,8.774999999999977,In2Te2Br2,0.004,-0.592,1.676,-18.656,6,3,5.828,27.817,45.333333333333336,15.333333333333334,2.28
741,778,1.5850000000000364,1.5850000000000364,1.5850000000000364,1.5850000000000364,Ir2Br2S2,0.0,-0.398,0.344,-32.265,6,3,5.701,16.746,42.666666666666664,10.666666666666666,2.58
742,779,4.080000000000041,4.080000000000041,4.080000000000041,4.080000000000041,Ir2Br2S2,0.05,-0.348,1.056,-31.966,6,3,2.936,22.912,42.666666666666664,10.666666666666666,2.58
743,780,1.7025000000001,1.7025000000001,1.7025000000001,1.7025000000001,Ir2Se2Br2,0.015,-0.322,0.052,-30.616,6,3,5.729,18.365,48.666666666666664,14.0,2.57
744,781,2.519999999999982,2.519999999999982,2.519999999999982,2.519999999999982,Sc4N3F2,0.0,-2.57,0.0,-70.001,9,3,9.976,8.831,13.666666666666666,4.555555555555555,2.5022222222222226
745,782,5.849999999999909,5.849999999999909,5.849999999999909,5.849999999999909,Ir2Se2Br2,0.028,-0.308,1.078,-30.535,6,3,2.856,24.358,48.666666666666664,14.0,2.57
746,783,0.9199999999999591,0.9199999999999591,0.9199999999999591,0.9199999999999591,Ir2Te2Br2,0.003,-0.314,0.0,-30.017,6,3,5.847,20.384,54.666666666666664,14.0,2.4200000000000004
747,784,8.307500000000005,8.307500000000005,8.307500000000005,8.307500000000005,Ir2Te2Br2,0.028,-0.29,1.007,-29.869,6,3,2.809,26.395,54.666666666666664,14.0,2.4200000000000004
748,785,1.302500000000009,1.302500000000009,1.302500000000009,1.302500000000009,Mn2Br2S2,0.06,-0.615,0.0,-34.446,6,3,5.665,17.422,25.333333333333332,10.0,2.3633333333333333
749,787,1.2625000000000455,1.2625000000000455,1.2625000000000455,1.2625000000000455,Mn2Br2S2,0.068,-0.606,0.002,-34.398,6,3,3.542,26.144,25.333333333333332,10.0,2.3633333333333333
750,788,1.0,1.0,1.0,1.0,Mn2Se2Br2,0.07,-0.556,0.0,-32.902,6,3,5.796,18.806,31.333333333333332,13.333333333333334,2.353333333333333
751,789,0.9674999999999727,0.9674999999999727,0.9674999999999727,0.9674999999999727,Te2Mn2Br2,0.071,-0.42,0.0,-31.534,6,3,5.96,20.874,37.333333333333336,13.333333333333334,2.2033333333333336
752,790,61.9,61.9,61.9,61.9,Hf4C3H2,0.051,-0.727,0.0,-70.872,9,3,9.876,9.395,34.22222222222222,3.3333333333333335,1.9166666666666667
753,791,2.1800000000000637,2.1800000000000637,2.1800000000000637,2.1800000000000637,Nb4C3H2,0.073,-0.447,0.0,-79.637,9,3,9.681,8.52,20.444444444444443,3.7777777777777777,2.0500000000000003
754,792,1.9499999999999318,1.9499999999999318,1.9499999999999318,1.9499999999999318,Ta4C3H2,0.063,-0.421,0.0,-77.365,9,3,9.694,8.494,34.666666666666664,3.7777777777777777,2.005555555555555
755,793,1.7899999999999636,1.7899999999999636,1.7899999999999636,1.7899999999999636,Ti4C3H2,0.027,-0.689,0.0,-67.265,9,3,9.237,8.166,12.0,3.3333333333333335,2.0233333333333334
756,794,2.0049999999999955,2.0049999999999955,2.0049999999999955,2.0049999999999955,V4C3H2,0.088,-0.326,0.0,-71.34,9,3,9.05,7.347,12.444444444444445,3.7777777777777777,2.0633333333333335
757,795,2.0025000000000546,2.0025000000000546,2.0025000000000546,2.0025000000000546,Zr4C3H2,0.057,-0.733,0.0,-70.516,9,3,9.949,9.604,20.0,3.3333333333333335,1.9299999999999997
758,796,0.32749999999998636,0.6425000000000409,0.2725000000000364,0.4141666666666879,Ti2Br2N2,0.0,-1.415,0.621,-41.746,6,3,5.515,13.327,21.333333333333332,8.666666666666666,2.513333333333333
759,797,61.9,61.9,61.9,61.9,Hf4N3H2,0.085,-1.212,0.0,-72.638,9,3,9.78,8.863,34.55555555555556,3.6666666666666665,2.08
760,798,0.3975000000000364,0.3925000000000409,0.3950000000000955,0.3950000000000576,Zr2Br2N2,0.0,-1.714,1.618,-44.967,6,3,6.576,11.567,27.333333333333332,8.666666666666666,2.4433333333333334
761,799,1.7624999999999318,1.7624999999999318,1.7624999999999318,1.7624999999999318,Sc4N3H2,0.05,-1.484,0.0,-63.702,9,3,9.693,8.849,11.88888888888889,3.2222222222222223,2.106666666666667
762,800,0.2999999999999545,0.5275000000000318,0.2999999999999545,0.37583333333331365,Zr2Br2N2,0.011,-1.703,1.816,-44.899,6,3,5.97,14.913,27.333333333333332,8.666666666666666,2.4433333333333334
763,801,1.7699999999999818,1.7699999999999818,1.7699999999999818,1.7699999999999818,Ti4N3H2,0.0,-1.284,0.0,-70.025,9,3,9.238,7.725,12.333333333333334,3.6666666666666665,2.1866666666666665
764,802,0.25,0.32749999999998636,0.13249999999993634,0.2366666666666409,Zr2Br2N2,0.094,-1.62,1.458,-44.403,6,3,6.597,16.068,27.333333333333332,8.666666666666666,2.4433333333333334
765,804,2.1299999999999955,2.1299999999999955,2.1299999999999955,2.1299999999999955,Zr4N3H2,0.081,-1.31,0.0,-73.108,9,3,9.851,9.062,20.333333333333332,3.6666666666666665,2.0933333333333337
766,805,0.2300000000000182,0.28499999999996817,0.125,0.2133333333333288,Ni2Br2O2,0.041,-0.516,0.0,-31.011,6,3,5.261,12.301,23.666666666666668,11.0,2.77
767,806,1.5299999999999727,1.5299999999999727,1.5299999999999727,1.5299999999999727,Ni2Br2S2,0.009,-0.344,0.0,-27.886,6,3,5.384,16.014,26.333333333333332,11.0,2.4833333333333334
768,807,0.19249999999999545,0.21000000000003638,0.17999999999994998,0.1941666666666606,Ni2Se2Br2,0.0,-0.355,0.0,-26.756,6,3,5.423,17.468,32.333333333333336,14.333333333333334,2.473333333333333
769,808,2.2600000000001046,2.2600000000001046,2.2600000000001046,2.2600000000001046,Ni2Se2Br2,0.07,-0.285,0.0,-26.338,6,3,5.218,19.087,32.333333333333336,14.333333333333334,2.473333333333333
770,809,1.009999999999991,1.009999999999991,1.009999999999991,1.009999999999991,Te2Ni2Br2,0.0,-0.336,0.0,-26.09,6,3,5.481,19.458,38.333333333333336,14.333333333333334,2.3233333333333333
771,810,1.5,1.5,1.5,1.5,Rh2Br2O2,0.114,-0.524,0.0,-30.854,6,3,5.353,13.72,29.333333333333332,10.666666666666666,2.893333333333333
772,811,61.9,61.9,61.9,61.9,Hf4C3O2,0.102,-1.678,0.0,-83.037,9,3,10.063,9.314,35.77777777777778,4.444444444444445,2.192222222222222
773,812,0.3350000000000364,0.4774999999999636,0.3350000000000364,0.3825000000000121,Sc2Br2O2,0.0,-2.837,3.21,-39.758,6,3,5.832,14.191,21.333333333333332,8.666666666666666,2.5866666666666664
774,813,3.072499999999991,3.072499999999991,3.072499999999991,3.072499999999991,Nb4C3O2,0.077,-1.212,0.0,-90.12,9,3,9.815,8.563,22.0,4.888888888888889,2.3255555555555554
775,814,3.0599999999999454,3.0599999999999454,3.0599999999999454,3.0599999999999454,Ta4C3O2,0.063,-1.249,0.0,-88.415,9,3,9.841,8.582,36.22222222222222,4.888888888888889,2.2811111111111106
776,815,2.8374999999999773,2.8374999999999773,2.8374999999999773,2.8374999999999773,Ti4C3O2,0.066,-1.502,0.0,-78.181,9,3,9.486,8.021,13.555555555555555,4.444444444444445,2.2988888888888885
777,816,2.9675000000000864,2.9675000000000864,2.9675000000000864,2.9675000000000864,V4C3O2,0.146,-0.968,0.0,-80.711,9,3,9.253,7.405,14.0,4.888888888888889,2.3388888888888886
778,817,0.34749999999996817,0.47500000000002274,0.34749999999996817,0.38999999999998636,Tl2Br2O2,0.0,-0.641,1.013,-22.259,6,3,6.195,16.247,41.333333333333336,12.0,2.813333333333333
779,818,1.1599999999999682,1.2474999999999454,1.1599999999999682,1.1891666666666272,V2Br2O2,0.019,-1.638,0.0,-40.293,6,3,5.458,13.111,22.0,9.333333333333334,2.6766666666666663
780,819,2.9149999999999636,2.9149999999999636,2.9149999999999636,2.9149999999999636,Zr4C3O2,0.107,-1.648,0.0,-82.354,9,3,10.105,9.467,21.555555555555557,4.444444444444445,2.2055555555555553
781,820,3.1499999999999773,3.1499999999999773,3.1499999999999773,3.1499999999999773,Cr4N3O2,0.137,-0.856,0.0,-80.644,9,3,9.186,7.522,14.777777777777779,5.666666666666667,2.5155555555555558
782,821,0.3625000000000682,0.3625000000000682,0.3625000000000682,0.3625000000000682,Y2Br2O2,0.003,-2.995,3.492,-40.773,6,3,6.701,12.793,27.333333333333332,8.666666666666666,2.5399999999999996
783,822,61.9,61.9,61.9,61.9,Hf4N3O2,0.09,-2.21,0.0,-85.216,9,3,9.904,8.994,36.111111111111114,4.777777777777778,2.3555555555555556
784,823,2.4249999999999545,2.4249999999999545,2.4249999999999545,2.4249999999999545,Mn4N3O2,0.068,-0.632,0.0,-79.861,9,3,9.065,7.3,15.222222222222221,6.111111111111111,2.466666666666667
785,824,1.44500000000005,1.44500000000005,1.44500000000005,1.44500000000005,Os2Br2S2,0.172,-0.042,0.0,-33.962,6,3,5.907,16.176,42.333333333333336,10.333333333333334,2.58
786,825,1.3600000000000136,1.3600000000000136,1.3600000000000136,1.3600000000000136,Pd2Br2S2,0.027,-0.308,0.0,-20.816,6,3,5.55,18.238,32.333333333333336,11.0,2.58
787,826,0.9550000000000409,0.9550000000000409,0.9550000000000409,0.9550000000000409,Pd2Se2Br2,0.0,-0.371,0.0,-20.001,6,3,5.697,19.575,38.333333333333336,14.333333333333334,2.57
788,827,2.8125,2.8125,2.8125,2.8125,Ti4N3O2,0.0,-2.128,0.0,-81.214,9,3,9.326,7.81,13.88888888888889,4.777777777777778,2.462222222222222
789,828,0.9350000000000591,0.9350000000000591,0.9350000000000591,0.9350000000000591,Pd2Te2Br2,0.0,-0.415,0.0,-19.706,6,3,5.781,21.512,44.333333333333336,14.333333333333334,2.4200000000000004
790,829,0.82000000000005,0.82000000000005,0.82000000000005,0.82000000000005,Pt2Te2Br2,0.0,-0.424,0.0,-24.831,6,3,5.511,21.867,55.0,14.333333333333334,2.4466666666666668
791,830,3.042500000000018,3.042500000000018,3.042500000000018,3.042500000000018,Zr4N3O2,0.089,-2.267,0.0,-85.323,9,3,9.927,9.137,21.88888888888889,4.777777777777778,2.368888888888889
792,831,1.650000000000091,1.650000000000091,1.650000000000091,1.650000000000091,Rh2Br2S2,0.0,-0.524,0.043,-28.767,6,3,5.716,16.737,32.0,10.666666666666666,2.606666666666667
793,832,3.777499999999918,3.777499999999918,3.777499999999918,3.777499999999918,Rh2Br2S2,0.002,-0.523,1.004,-28.758,6,3,3.021,22.553,32.0,10.666666666666666,2.606666666666667
794,833,5.194999999999936,5.194999999999936,5.194999999999936,5.194999999999936,Rh2Se2Br2,0.0,-0.519,1.023,-27.541,6,3,2.973,23.888,38.0,14.0,2.5966666666666667
795,834,0.6225000000000591,0.7150000000000318,1.1750000000000682,0.8375000000000531,Ta4S2B3,0.087,-0.852,0.0,-75.205,9,3,10.953,9.437,37.666666666666664,4.555555555555555,1.9200000000000002
796,835,1.11749999999995,1.11749999999995,1.11749999999995,1.11749999999995,Rh2Se2Br2,0.023,-0.495,0.0,-27.402,6,3,5.795,18.24,38.0,14.0,2.5966666666666667
797,836,7.1924999999999955,7.1924999999999955,7.1924999999999955,7.1924999999999955,Rh2Te2Br2,0.0,-0.513,0.984,-26.951,6,3,2.944,25.922,44.0,14.0,2.4466666666666668
798,837,1.052500000000009,1.052500000000009,1.052500000000009,1.052500000000009,Rh2Te2Br2,0.009,-0.504,0.0,-26.897,6,3,5.899,20.249,44.0,14.0,2.4466666666666668
799,838,0.7524999999999409,0.7524999999999409,0.7524999999999409,0.7524999999999409,Ru2Br2S2,0.126,-0.302,0.0,-32.065,6,3,5.947,15.995,31.666666666666668,10.333333333333334,2.58
800,839,0.47500000000002274,0.47500000000002274,0.47500000000002274,0.47500000000002274,Ru2Se2Br2,0.157,-0.197,0.0,-30.242,6,3,5.976,17.619,37.666666666666664,13.666666666666666,2.57
801,840,1.2624999999999886,1.2624999999999886,1.2624999999999886,1.2624999999999886,Sc2Br2S2,0.0,-1.892,2.13,-31.995,6,3,5.869,19.255,24.0,8.666666666666666,2.3000000000000003
802,841,0.9399999999999409,0.8999999999999773,1.5,1.113333333333306,Nb4S2C3,0.022,-0.774,0.0,-84.085,9,3,10.859,8.975,23.77777777777778,4.888888888888889,2.1344444444444446
803,842,0.92999999999995,0.8999999999999773,1.5049999999999955,1.1116666666666408,Ta4S2C3,0.008,-0.802,0.0,-82.298,9,3,10.829,9.006,38.0,4.888888888888889,2.09
804,843,61.9,61.9,61.9,61.9,Ti2Br2S2,0.0,-1.373,0.0,-32.942,6,3,5.43,17.002,24.333333333333332,9.0,2.36
805,844,0.7975000000000136,0.6825000000000045,1.0949999999999136,0.8583333333333106,V4S2C3,0.093,-0.571,0.0,-75.046,9,3,10.166,7.846,15.777777777777779,4.888888888888889,2.147777777777778
806,845,61.9,61.9,61.9,61.9,Hf4S2N3,0.039,-1.619,0.0,-77.812,9,3,10.918,9.537,37.888888888888886,4.777777777777778,2.1644444444444444
807,846,0.15750000000002728,0.35750000000007276,0.8875000000000455,0.4675000000000485,Mn4S2N3,0.05,-0.251,0.0,-74.343,9,3,9.924,7.804,17.0,6.111111111111111,2.2755555555555556
808,847,1.4075000000000273,1.4075000000000273,1.4075000000000273,1.4075000000000273,Y2Br2S2,0.0,-2.087,2.969,-33.231,6,3,6.249,21.794,30.0,8.666666666666666,2.2533333333333334
809,848,1.490000000000009,1.490000000000009,1.490000000000009,1.490000000000009,Y2Br2S2,0.071,-2.016,3.076,-32.806,6,3,7.055,16.962,30.0,8.666666666666666,2.2533333333333334
810,849,1.169999999999959,1.169999999999959,1.169999999999959,1.169999999999959,Zr2Br2S2,0.0,-1.592,0.0,-35.682,6,3,5.648,18.877,30.333333333333332,9.0,2.29
811,850,0.32999999999992724,0.44499999999993634,0.32999999999992724,0.3683333333332636,Sc2Se2Br2,0.0,-1.752,1.51,-29.965,6,3,5.866,20.685,30.0,12.0,2.29
812,851,0.9850000000000136,0.9474999999999909,1.357499999999959,1.0966666666666545,Ti4S2N3,0.0,-1.553,0.0,-73.948,9,3,10.359,8.291,15.666666666666666,4.777777777777778,2.2711111111111113
813,852,0.3300000000000409,0.37000000000000455,0.3300000000000409,0.34333333333336213,Te2Sc2Br2,0.012,-1.464,0.552,-27.685,6,3,5.884,23.238,36.0,12.0,2.14
814,853,1.1375000000000455,1.0600000000000591,1.5275000000000318,1.2416666666667122,Zr4S2N3,0.042,-1.671,0.0,-77.86,9,3,11.004,9.674,23.666666666666668,4.777777777777778,2.177777777777778
815,854,1.072499999999991,1.072499999999991,1.072499999999991,1.072499999999991,Mo2Ti4Cl6N3,0.076,-1.318,0.0,-104.697,15,4,5.391,28.075,19.666666666666668,5.666666666666667,2.570666666666667
816,855,0.012500000000045475,0.012500000000045475,0.012500000000045475,0.012500000000045475,Mg3Si2O9H4,0.001,-2.238,3.35,-115.355,18,4,5.329,25.254,7.777777777777778,4.0,2.638333333333333
817,856,61.9,61.9,61.9,61.9,Hf3Br2O5,0.065,-2.824,3.448,-79.549,10,3,5.664,29.996,32.6,7.6,2.702
818,857,1.2100000000000364,1.2100000000000364,1.2100000000000364,1.2100000000000364,Ti2Se2Br2,0.024,-1.206,0.0,-30.75,6,3,5.444,18.279,30.333333333333332,12.333333333333334,2.35
819,858,1.697499999999991,1.697499999999991,1.697499999999991,1.697499999999991,Zr2Se2Br2,0.0,-1.426,0.0,-33.497,6,3,5.672,19.915,36.333333333333336,12.333333333333334,2.28
820,859,0.8575000000000728,0.8550000000000182,0.8550000000000182,0.8558333333333698,Nb4Ni6S10,0.039,-0.752,0.15,-140.612,20,3,3.328,58.655,24.6,7.0,2.183
821,860,0.5275000000001455,0.40000000000009095,0.525000000000091,0.4841666666667758,Nb4Ni6Se10,0.0,-0.649,0.104,-132.606,20,3,3.619,61.295,33.6,12.0,2.168
822,861,0.5574999999998909,0.3200000000001637,0.4499999999998181,0.44249999999995754,Nb4Te10Ni6,0.0,-0.452,0.0,-125.875,20,3,3.909,66.305,42.6,12.0,1.943
823,862,1.6274999999995998,1.6574999999998,1.6349999999997635,1.639999999999721,Nb4Pd6Se10,0.034,-0.619,0.064,-111.439,20,3,4.001,65.327,39.0,12.0,2.255
824,863,1.0900000000001455,1.0075000000001637,0.9949999999998909,1.0308333333334,Nb4Pd6Te10,0.0,-0.487,0.023,-106.016,20,3,4.252,70.255,48.0,12.0,2.0300000000000002
825,864,0.9099999999998545,0.837500000000091,0.8049999999998363,0.8508333333332606,Pt6Nb4Te10,0.039,-0.481,0.0,-121.101,20,3,4.247,68.835,57.6,12.0,2.054
826,865,1.0399999999999636,1.0399999999999636,1.0399999999999636,1.0399999999999636,Ta4Ni6S10,0.033,-0.741,0.058,-138.354,20,3,3.368,58.244,31.0,7.0,2.1630000000000003
827,866,0.5199999999999818,0.375,0.5349999999998545,0.4766666666666121,Ta4Ni6Se10,0.0,-0.63,0.175,-130.168,20,3,3.623,60.955,40.0,12.0,2.148