,ind,max_valorX,max_valorY,max_valorZ,media,formula,Ehull,HF,Gap,Energy,natoms,nspecies,thickness,uc_area,average_atomic_number,average_valence_number,average_electronegativity
3373,3571,0.6124999999999545,0.6124999999999545,0.6124999999999545,0.6124999999999545,CoGa2S4,0.046,-0.569,0.0,-34.328,7,3,8.89,11.389,21.857142857142858,8.428571428571429,2.2600000000000002
3374,3572,0.5800000000000409,0.61749999999995,0.5850000000000364,0.5941666666666757,CoGa2Se4,0.026,-0.478,0.0,-31.315,7,3,9.517,12.492,32.142857142857146,14.142857142857142,2.242857142857143
3375,3573,61.9,61.9,61.9,61.9,CoGa2Se4,0.027,-0.477,0.0,-31.307,7,3,9.473,12.565,32.142857142857146,14.142857142857142,2.242857142857143
3376,3574,0.9025000000000318,0.9025000000000318,0.9025000000000318,0.9025000000000318,Te4CoGa2,0.06,-0.249,0.0,-28.597,7,3,10.341,14.398,42.42857142857143,14.142857142857142,1.985714285714286
3377,3575,0.6324999999999363,0.6649999999999636,0.6124999999999545,0.6366666666666182,Te4CoGa2,0.068,-0.241,0.0,-28.543,7,3,10.421,14.258,42.42857142857143,14.142857142857142,1.985714285714286
3378,3579,0.6549999999999727,0.6375000000000455,0.6150000000000091,0.6358333333333425,In2CoSe4,0.06,-0.402,0.0,-30.5,7,3,10.1,13.447,37.285714285714285,14.142857142857142,2.234285714285714
3379,3580,0.6750000000000682,0.6700000000000728,0.6700000000000728,0.6716666666667379,In2CoSe4,0.061,-0.401,0.0,-30.492,7,3,10.066,13.509,37.285714285714285,14.142857142857142,2.234285714285714
3380,3581,0.8824999999999363,0.8824999999999363,0.8824999999999363,0.8824999999999363,In2Te4Co,0.088,-0.207,0.0,-28.024,7,3,10.971,15.315,47.57142857142857,14.142857142857142,1.977142857142857
3381,3582,1.7024999999999864,1.6375000000000455,1.6375000000000455,1.6591666666666924,CoNi2Se4,0.021,-0.276,0.0,-38.59,7,3,3.148,23.226,31.285714285714285,13.285714285714286,2.2714285714285714
3382,3583,61.9,61.9,61.9,61.9,V2CoS4,0.101,-0.751,0.0,-46.847,7,3,8.427,9.23,19.571428571428573,6.142857142857143,2.2085714285714286
3383,3584,0.11999999999989086,0.4724999999998545,0.724999999999909,0.43916666666655146,Au2Hg2Te2Br2,0.074,-0.223,0.538,-19.393,8,4,3.992,35.055,61.5,14.0,2.4000000000000004
3384,3585,0.27499999999997726,0.20499999999992724,0.23249999999995907,0.23749999999995453,CrGa2S4,0.047,-0.641,0.0,-36.018,7,3,9.102,12.014,21.428571428571427,8.0,2.2285714285714286
3385,3586,1.0650000000000546,1.0650000000000546,1.0950000000000273,1.0750000000000455,CrGa2Se4,0.056,-0.546,0.0,-32.966,7,3,9.666,13.299,31.714285714285715,13.714285714285714,2.2114285714285713
3386,3587,1.2450000000000045,1.2450000000000045,1.2450000000000045,1.2450000000000045,Te4CrGa2,0.036,-0.279,0.0,-29.985,7,3,10.558,15.245,42.0,13.714285714285714,1.9542857142857142
3387,3588,7.659999999999968,7.659999999999968,7.659999999999968,7.659999999999968,Au2Cd2Te2I2,0.088,-0.295,0.824,-19.843,8,4,4.464,36.134,58.0,14.0,2.2475
3388,3589,61.9,61.9,61.9,61.9,In2Te4Cr,0.035,-0.27,0.0,-29.642,7,3,11.074,16.43,47.142857142857146,13.714285714285714,1.945714285714286
3389,3590,0.5425000000000182,0.5425000000000182,0.5425000000000182,0.5425000000000182,Au2Hg2Te2Cl2,0.089,-0.265,0.494,-20.131,8,4,4.044,33.975,57.0,11.5,2.45
3390,3591,0.4474999999999909,0.4075000000000273,0.43250000000000455,0.42916666666667425,Ni2CuO4,0.0,-0.677,0.0,-43.41,7,3,7.63,7.244,16.714285714285715,7.857142857142857,2.782857142857143
3391,3592,0.15249999999991815,0.3125,0.19000000000005457,0.21833333333332425,Au2Hg2I2Se2,0.087,-0.146,0.308,-19.123,8,4,5.0,33.885,61.5,14.0,2.4375
3392,3593,0.15750000000002728,0.36750000000006366,0.4450000000001637,0.32333333333341824,Au2Hg2Te2I2,0.054,-0.168,0.469,-18.742,8,4,4.843,36.501,66.0,14.0,2.325
3393,3594,0.3950000000000955,0.3950000000000955,0.3950000000000955,0.3950000000000955,FeAl2S4,0.097,-0.809,0.848,-38.494,7,3,8.574,11.179,16.571428571428573,5.428571428571429,2.1957142857142857
3394,3595,0.36000000000001364,0.36000000000001364,0.34750000000008185,0.3558333333333697,FeAl2S4,0.106,-0.8,0.663,-38.43,7,3,8.695,11.042,16.571428571428573,5.428571428571429,2.1957142857142857
3395,3596,0.4774999999999636,0.38999999999998636,0.4600000000000364,0.44249999999999545,FeSe4Al2,0.104,-0.585,0.739,-34.544,7,3,9.232,12.391,26.857142857142858,11.142857142857142,2.1785714285714284
3396,3597,1.32000000000005,1.32000000000005,1.32000000000005,1.32000000000005,Te4Cr2Fe,0.096,-0.121,0.0,-41.524,7,3,8.39,13.813,40.285714285714285,12.0,1.9357142857142857
3397,3598,0.4275000000000091,0.4275000000000091,0.4275000000000091,0.4275000000000091,FeGa2S4,0.045,-0.57,0.862,-35.154,7,3,8.789,11.29,21.714285714285715,8.285714285714286,2.2528571428571427
3398,3599,0.4824999999999591,0.4149999999999636,0.4800000000000182,0.45916666666664696,FeGa2Se4,0.056,-0.445,0.538,-31.894,7,3,9.372,12.493,32.0,14.0,2.2357142857142853
3399,3600,61.9,61.9,61.9,61.9,Te4FeGa2,0.095,-0.201,0.186,-29.078,7,3,10.197,14.384,42.285714285714285,14.0,1.9785714285714289
3400,3601,7.029999999999973,7.029999999999973,7.029999999999973,7.029999999999973,Cd2Cu2Br2S2,0.06,-0.51,0.944,-24.613,8,4,4.849,27.801,32.0,11.5,2.2824999999999998
3401,3602,7.1049999999999045,7.1049999999999045,7.1049999999999045,7.1049999999999045,Cd2Cu2Se2Br2,0.07,-0.473,0.885,-23.126,8,4,4.55,29.698,36.5,14.0,2.275
3402,3603,6.6825000000000045,6.6825000000000045,6.6825000000000045,6.6825000000000045,Cd2Te2Cu2Br2,0.082,-0.395,1.102,-21.947,8,4,4.213,32.388,41.0,14.0,2.1624999999999996
3403,3604,1.740000000000009,1.740000000000009,1.740000000000009,1.740000000000009,Mo2Br2Cl2O2,0.0,-1.257,0.0,-49.45,8,4,3.989,25.058,25.5,9.0,2.93
3404,3605,1.0050000000001091,1.0125000000000455,1.0050000000001091,1.007500000000088,Hg2Cu2Br2S2,0.039,-0.304,0.775,-22.877,8,4,4.579,28.314,40.0,11.5,2.36
3405,3606,0.12750000000005457,0.28500000000008185,0.4774999999999636,0.2966666666667,Hg2Cu2Se2Br2,0.025,-0.3,0.812,-21.66,8,4,4.347,30.091,44.5,14.0,2.3525
3406,3607,0.11750000000006366,0.34750000000008185,0.6974999999999909,0.3875000000000455,Hg2Te2Cu2Br2,0.021,-0.267,0.976,-20.84,8,4,4.106,32.656,49.0,14.0,2.24
3407,3608,1.5049999999999955,1.5049999999999955,1.5049999999999955,1.5049999999999955,Cu2Cl2C2O2,0.119,-0.613,2.508,-44.514,8,4,7.525,18.665,15.0,7.0,2.7625
3408,3609,0.5974999999999682,0.5974999999999682,0.5974999999999682,0.5974999999999682,Te2Fe4Ge,0.052,-0.084,0.0,-47.678,7,3,6.402,13.696,34.285714285714285,11.142857142857142,1.9328571428571428
3409,3610,0.08500000000003638,0.2625000000000455,0.1650000000000773,0.17083333333338638,K2C2N2O2,0.002,-1.013,4.61,-55.937,8,4,4.424,23.927,10.0,4.0,2.4625
3410,3611,1.7825000000000273,1.7825000000000273,1.7825000000000273,1.7825000000000273,K2S2C2N2,0.066,-0.415,4.188,-49.055,8,4,5.055,28.211,12.0,4.0,2.2474999999999996
3411,3612,0.25,0.1974999999999909,0.17000000000001592,0.20583333333333562,MgAl2S4,0.03,-1.181,2.048,-33.676,7,3,9.049,11.968,14.571428571428571,4.571428571428571,2.1214285714285714
3412,3613,2.240000000000009,2.240000000000009,2.240000000000009,2.240000000000009,Se4MgAl2,0.011,-0.962,1.064,-29.756,7,3,9.646,13.304,24.857142857142858,10.285714285714286,2.1042857142857145
3413,3614,0.4175000000000182,0.44500000000005,0.34750000000008185,0.40333333333338334,Te4MgAl2,0.031,-0.543,0.439,-25.71,7,3,10.555,15.751,35.142857142857146,10.285714285714286,1.8471428571428574
3414,3615,0.21750000000002956,0.25499999999999545,0.18250000000000455,0.21833333333334318,Ga2MgS4,0.0,-0.914,1.128,-30.133,7,3,9.177,12.206,19.714285714285715,7.428571428571429,2.1785714285714284
3415,3616,0.44499999999993634,0.47249999999996817,0.4599999999999227,0.45916666666660905,Ga2Se4Mg,0.0,-0.788,0.329,-26.869,7,3,9.72,13.529,30.0,13.142857142857142,2.1614285714285715
3416,3617,0.3875000000000455,0.43250000000000455,0.34750000000008185,0.3891666666667106,Te4Ga2Mg,0.019,-0.469,0.098,-23.524,7,3,10.556,15.893,40.285714285714285,13.142857142857142,1.9042857142857144
3417,3618,0.10500000000001819,0.2799999999999727,0.18250000000000455,0.18916666666666515,Na2C2N2O2,0.027,-0.962,4.788,-55.704,8,4,4.091,19.03,8.0,4.0,2.4899999999999998
3418,3619,0.21749999999997272,0.22249999999996817,0.21749999999997272,0.21916666666663787,In2MgS4,0.0,-0.845,1.163,-29.371,7,3,9.649,13.439,24.857142857142858,7.428571428571429,2.1700000000000004
3419,3620,0.42250000000001364,0.42250000000001364,0.3975000000000364,0.4141666666666879,In2Se4Mg,0.0,-0.766,0.581,-26.435,7,3,10.212,14.725,35.142857142857146,13.142857142857142,2.152857142857143
3420,3621,61.9,61.9,61.9,61.9,In2Te4Mg,0.0,-0.488,0.232,-23.375,7,3,11.061,17.105,45.42857142857143,13.142857142857142,1.895714285714286
3421,3622,1.9375,1.9424999999999955,1.9375,1.9391666666666652,Na2S2C2N2,0.102,-0.328,4.121,-48.542,8,4,4.744,23.163,10.0,4.0,2.2750000000000004
3422,3623,7.07000000000005,7.07000000000005,7.07000000000005,7.07000000000005,Cd2Cu2S2Cl2,0.071,-0.58,0.876,-25.572,8,4,4.424,27.164,27.5,9.0,2.3325
3423,3624,6.985000000000014,6.985000000000014,6.985000000000014,6.985000000000014,Cd2Cu2Se2Cl2,0.081,-0.543,0.84,-24.084,8,4,4.1,28.89,32.0,11.5,2.325
3424,3625,1.3975000000000364,1.3975000000000364,1.6025000000000773,1.4658333333333833,MnAl2S4,0.138,-0.818,0.0,-39.234,7,3,9.143,11.612,16.428571428571427,5.285714285714286,2.1557142857142857
3425,3626,6.9325000000000045,7.082499999999982,6.982499999999959,6.999166666666649,Cd2Te2Cu2Cl2,0.093,-0.464,1.124,-22.902,8,4,3.835,31.342,36.5,11.5,2.2125
3426,3627,1.1374999999999318,1.1374999999999318,1.1374999999999318,1.1374999999999318,Te4MnAl2,0.05,-0.315,0.0,-32.217,7,3,10.522,15.342,37.0,11.0,1.8814285714285717
3427,3628,6.794999999999959,6.794999999999959,6.794999999999959,6.794999999999959,Cd2I2Cu2S2,0.055,-0.413,1.182,-23.622,8,4,5.316,28.687,36.5,11.5,2.2075
3428,3629,1.0049999999999955,1.0049999999999955,1.0049999999999955,1.0049999999999955,Bi2MnS4,0.036,-0.381,0.277,-38.047,7,3,9.603,13.481,36.42857142857143,8.714285714285714,2.2728571428571427
3429,3630,1.5599999999999454,1.5599999999999454,1.5599999999999454,1.5599999999999454,Bi2MnSe4,0.016,-0.37,0.17,-35.588,7,3,10.127,14.486,46.714285714285715,14.428571428571429,2.255714285714286
3430,3631,1.625,1.625,1.625,1.625,Bi2Te4Mn,0.036,-0.17,0.11,-33.078,7,3,10.874,16.284,57.0,14.428571428571429,1.9985714285714289
3431,3632,7.2000000000000455,7.2000000000000455,7.2000000000000455,7.2000000000000455,Cd2I2Cu2Se2,0.059,-0.382,1.036,-22.185,8,4,5.158,30.73,41.0,14.0,2.2
3432,3633,7.342499999999973,7.342499999999973,7.342499999999973,7.342499999999973,Cd2Te2I2Cu2,0.067,-0.308,1.151,-21.037,8,4,5.039,33.592,45.5,14.0,2.0875
3433,3634,0.5950000000000273,0.5950000000000273,0.5950000000000273,0.5950000000000273,MnGa2S4,0.122,-0.539,0.0,-35.607,7,3,9.195,12.075,21.571428571428573,8.142857142857142,2.212857142857143
3434,3635,61.9,61.9,61.9,61.9,MnGa2Se4,0.025,-0.532,0.0,-33.179,7,3,9.714,13.394,31.857142857142858,13.857142857142858,2.1957142857142857
3435,3636,1.324999999999818,1.334999999999809,1.324999999999818,1.3283333333331484,Hg2Cu2S2Cl2,0.042,-0.365,0.792,-23.77,8,4,4.153,27.677,35.5,9.0,2.41
3436,3637,1.142500000000041,1.142500000000041,1.142500000000041,1.142500000000041,Te4MnGa2,0.04,-0.259,0.0,-30.159,7,3,10.584,15.325,42.142857142857146,13.857142857142858,1.9385714285714286
3437,3638,0.3849999999999909,0.4474999999999909,0.3949999999999818,0.4091666666666545,Hg2Cu2Se2Cl2,0.03,-0.363,0.833,-22.56,8,4,3.963,29.299,40.0,11.5,2.4025
3438,3639,0.6549999999999727,0.6549999999999727,0.6549999999999727,0.6549999999999727,Hg2Te2Cu2Cl2,0.025,-0.332,0.897,-21.76,8,4,3.97,31.66,44.5,11.5,2.29
3439,3640,0.5525000000000091,0.5575000000001182,0.5050000000001091,0.5383333333334122,Hg2Cu2Se2F2,0.038,-0.698,0.523,-24.849,8,4,3.903,26.456,38.0,11.5,2.6075
3440,3641,61.9,61.9,61.9,61.9,In2MnS4,0.031,-0.56,0.018,-35.477,7,3,9.653,13.327,26.714285714285715,8.142857142857142,2.204285714285714
3441,3642,0.8300000000001546,0.8424999999999727,0.8324999999999818,0.8350000000000364,Hg2I2Cu2S2,0.04,-0.221,0.774,-22.008,8,4,5.116,29.21,44.5,11.5,2.285
3442,3643,61.9,61.9,61.9,61.9,In2MnSe4,0.007,-0.501,0.0,-32.679,7,3,10.199,14.589,37.0,13.857142857142858,2.187142857142857
3443,3644,1.1225000000000591,1.1225000000000591,1.1225000000000591,1.1225000000000591,In2MnSe4,0.066,-0.442,0.0,-32.268,7,3,10.011,14.886,37.0,13.857142857142858,2.187142857142857
3444,3645,0.1449999999999818,0.28749999999990905,0.14249999999992724,0.19166666666660603,Hg2I2Cu2Se2,0.03,-0.219,0.771,-20.8,8,4,4.965,31.23,49.0,14.0,2.2775
3445,3646,0.147499999999809,0.3450000000000273,0.5924999999999727,0.361666666666603,Hg2Te2I2Cu2,0.028,-0.186,0.924,-19.979,8,4,4.837,34.008,53.5,14.0,2.165
3446,3647,0.7574999999999363,0.74249999999995,0.74249999999995,0.7474999999999454,Sb2MnS4,0.072,-0.302,0.383,-36.958,7,3,9.439,12.888,27.285714285714285,8.714285714285714,2.281428571428571
3447,3653,0.9325000000000045,0.9325000000000045,0.92999999999995,0.931666666666653,Au2MoO4,0.109,-1.04,2.64,-45.24,7,3,2.358,46.522,33.142857142857146,7.428571428571429,3.0
3448,3656,1.9700000000000273,1.9700000000000273,2.0150000000001,1.9850000000000516,Au2MoSe4,0.142,-0.231,0.592,-33.011,7,3,3.062,34.764,48.0,13.142857142857142,2.491428571428571
3449,3657,0.4874999999999545,0.4874999999999545,0.4874999999999545,0.4874999999999545,MoCu2S4,0.03,-0.486,1.17,-38.27,7,3,2.61,29.602,23.428571428571427,7.428571428571429,2.325714285714286
3450,3658,1.5425000000000182,1.5425000000000182,2.1224999999999454,1.7358333333333273,Au4Br4S4F4,0.073,-0.536,0.874,-50.096,16,4,4.598,57.571,34.75,10.25,3.015
3451,3659,3.5874999999998636,3.5874999999998636,3.5874999999998636,3.5874999999998636,Au4Br4O4H4,0.063,-0.427,0.072,-59.485,16,4,6.421,35.952,30.75,8.75,2.785
3452,3660,5.747499999999945,5.442499999999882,5.447499999999991,5.545833333333273,Au4Br4S4H4,0.0,-0.186,1.083,-51.44,16,4,6.072,53.801,32.75,8.75,2.5700000000000003
3453,3661,1.5399999999999636,1.5399999999999636,1.5399999999999636,1.5399999999999636,Au4S4Cl4F4,0.074,-0.587,0.921,-51.715,16,4,4.608,56.426,30.25,7.75,3.0650000000000004
3454,3662,0.3949999999999818,0.3949999999999818,0.3949999999999818,0.3949999999999818,NiAl2S4,0.066,-0.806,0.333,-36.681,7,3,8.79,11.452,16.857142857142858,5.714285714285714,2.207142857142857
3455,3663,0.44000000000005457,0.4574999999999818,0.42999999999995,0.44249999999999545,NiAl2S4,0.066,-0.806,0.187,-36.68,7,3,8.825,11.392,16.857142857142858,5.714285714285714,2.207142857142857
3456,3664,0.5650000000000546,0.5850000000000364,0.5575000000000045,0.5691666666666985,NiSe4Al2,0.079,-0.615,0.0,-32.959,7,3,9.487,12.414,27.142857142857142,11.428571428571429,2.19
3457,3665,0.5199999999999818,0.4150000000000773,0.47250000000008185,0.46916666666671364,NiSe4Al2,0.079,-0.615,0.0,-32.957,7,3,9.456,12.494,27.142857142857142,11.428571428571429,2.19
3458,3666,0.6875,0.6899999999999409,0.6875,0.6883333333333136,Te4NiAl2,0.098,-0.306,0.0,-29.685,7,3,10.436,14.343,37.42857142857143,11.428571428571429,1.932857142857143
3459,3667,6.380000000000109,6.1724999999999,6.1724999999999,6.241666666666636,Au4S4Cl4H4,0.064,-0.245,1.222,-53.189,16,4,5.802,53.198,28.25,6.25,2.62
3460,3668,61.9,61.9,61.9,61.9,Cr2NiS4,0.051,-0.58,0.0,-46.44,7,3,8.259,10.101,20.0,6.571428571428571,2.2214285714285715
3461,3669,1.2124999999999773,1.2000000000000455,1.2000000000000455,1.2041666666666895,Cr2NiSe4,0.056,-0.423,0.0,-42.957,7,3,8.665,11.297,30.285714285714285,12.285714285714286,2.204285714285714
3462,3670,1.3700000000000045,1.3700000000000045,1.3700000000000045,1.3700000000000045,Te4Cr2Ni,0.057,-0.176,0.0,-40.113,7,3,8.671,13.651,40.57142857142857,12.285714285714286,1.9471428571428573
3463,3671,61.9,61.9,61.9,61.9,NiGa2O4,0.061,-1.416,0.0,-43.466,7,3,7.125,8.602,17.428571428571427,8.571428571428571,2.755714285714286
3464,3672,0.4574999999999818,0.4199999999999591,0.44249999999999545,0.4399999999999788,NiGa2O4,0.064,-1.414,0.0,-43.448,7,3,7.163,8.573,17.428571428571427,8.571428571428571,2.755714285714286
3465,3673,0.4499999999999318,0.4499999999999318,0.4499999999999318,0.4499999999999318,NiGa2S4,0.032,-0.55,0.17,-33.218,7,3,8.938,11.638,22.0,8.571428571428571,2.2642857142857147
3466,3674,0.5299999999999727,0.5874999999999773,0.5299999999999727,0.5491666666666409,NiGa2S4,0.048,-0.534,0.0,-33.101,7,3,9.006,11.448,22.0,8.571428571428571,2.2642857142857147
3467,3675,0.5249999999999773,0.44249999999999545,0.5325000000000273,0.5,NiGa2Se4,0.03,-0.475,0.0,-30.312,7,3,9.572,12.638,32.285714285714285,14.285714285714286,2.2471428571428573
3468,3676,0.6399999999999864,0.6949999999999363,0.6499999999999773,0.6616666666666333,NiGa2Se4,0.03,-0.475,0.0,-30.31,7,3,9.593,12.602,32.285714285714285,14.285714285714286,2.2471428571428573
3469,3677,0.7400000000000091,0.8075000000000045,0.7400000000000091,0.7625000000000076,Te4NiGa2,0.048,-0.269,0.0,-27.753,7,3,10.486,14.408,42.57142857142857,14.285714285714286,1.99
3470,3678,61.9,61.9,61.9,61.9,Te4NiGa2,0.049,-0.268,0.0,-27.746,7,3,10.474,14.424,42.57142857142857,14.285714285714286,1.99
3471,3679,3.7049999999999272,3.7049999999999272,3.7049999999999272,3.7049999999999272,Cu4Br4O4H4,0.03,-0.635,0.339,-65.003,16,4,4.94,35.765,18.25,8.75,2.625
3472,3680,4.922500000000127,4.922500000000127,4.922500000000127,4.922500000000127,Cu4Br4S4H4,0.041,-0.212,0.0,-54.038,16,4,4.696,48.448,20.25,8.75,2.41
3473,3681,5.427500000000009,5.427500000000009,5.427500000000009,5.427500000000009,Cu4Cl4O4H4,0.029,-0.712,0.403,-67.028,16,4,4.669,34.606,13.75,6.25,2.675
3474,3682,2.0399999999999636,2.0399999999999636,2.0399999999999636,2.0399999999999636,Cu4S4Cl4H4,0.05,-0.32,0.0,-56.568,16,4,3.632,51.743,15.75,6.25,2.46
3475,3683,0.4774999999999636,0.44249999999999545,0.5199999999999818,0.4799999999999803,In2NiSe4,0.053,-0.41,0.0,-29.572,7,3,10.108,13.658,37.42857142857143,14.285714285714286,2.2385714285714284
3476,3684,0.7875000000000227,0.7875000000000227,0.7875000000000227,0.7875000000000227,In2Te4Ni,0.069,-0.234,0.0,-27.23,7,3,11.067,15.39,47.714285714285715,14.285714285714286,1.9814285714285715
3477,3685,0.6899999999999409,0.6899999999999409,0.6899999999999409,0.6899999999999409,In2Te4Ni,0.07,-0.234,0.0,-27.228,7,3,11.057,15.403,47.714285714285715,14.285714285714286,1.9814285714285715
3478,3686,1.522499999999809,1.522499999999809,1.522499999999809,1.522499999999809,Cu4O4F4H4,0.078,-1.069,0.46,-71.943,16,4,3.983,31.743,11.75,6.25,2.88
3479,3687,4.740000000000009,4.710000000000036,4.710000000000036,4.720000000000027,I4Cu4O4H4,0.053,-0.539,0.136,-63.041,16,4,5.201,38.115,22.75,8.75,2.55
3480,3688,1.1000000000000227,1.1000000000000227,1.1000000000000227,1.1000000000000227,VBrClO,0.002,-1.534,0.784,-23.153,4,4,3.383,13.584,20.75,8.75,2.7975
3481,3689,0.7450000000000045,0.7749999999999773,0.5874999999999773,0.7024999999999864,IVBrO,0.006,-1.277,0.74,-21.819,4,4,3.667,14.567,29.75,11.25,2.6725
3482,3690,1.1575000000000273,1.25750000000005,1.1800000000000068,1.1983333333333615,IVBrS,0.128,-0.602,0.537,-18.074,4,4,3.646,17.993,31.75,11.25,2.4575
3483,3691,1.170000000000016,1.1725000000000136,1.170000000000016,1.1708333333333485,IVSeBr,0.116,-0.545,0.847,-17.249,4,4,3.524,23.636,36.25,13.75,2.45
3484,3692,3.707499999999982,3.707499999999982,3.707499999999982,3.707499999999982,InMnBrS,0.09,-0.501,0.978,-20.148,4,4,4.829,12.432,31.25,10.75,2.2175000000000002
3485,3693,1.759999999999991,1.759999999999991,1.759999999999991,1.759999999999991,PbTe4As2,0.038,-0.094,0.477,-26.561,7,3,10.877,15.28,50.857142857142854,15.428571428571429,2.1557142857142857
3486,3694,2.3700000000000045,2.3700000000000045,2.3700000000000045,2.3700000000000045,PbBi2S4,0.004,-0.424,0.494,-32.388,7,3,10.142,14.529,44.57142857142857,9.714285714285714,2.3842857142857143
3487,3695,2.9449999999999363,2.9449999999999363,2.9449999999999363,2.9449999999999363,PbBi2Se4,0.0,-0.446,0.289,-30.16,7,3,10.661,15.524,54.857142857142854,15.428571428571429,2.367142857142857
3488,3696,3.3099999999999454,3.3099999999999454,3.3099999999999454,3.3099999999999454,PbBi2Te4,0.0,-0.285,0.117,-27.919,7,3,11.389,17.366,65.14285714285714,15.428571428571429,2.11