,ind,max_valorX,max_valorY,max_valorZ,media,formula,Ehull,HF,Gap,Energy,natoms,nspecies,thickness,uc_area,average_atomic_number,average_valence_number,average_electronegativity
350,369,0.5174999999999272,0.537499999999909,0.3849999999999909,0.4799999999999424,Sr3Ni2Br2O5,0.0,-1.828,0.008,-70.247,12,4,10.755,14.868,23.333333333333332,7.5,2.4825
351,370,1.775000000000034,1.7725000000000364,1.775000000000034,1.7741666666667015,SbSeBr,0.0,-0.444,1.069,-10.806,3,3,3.418,14.388,40.0,16.0,2.52
352,371,1.599999999999966,1.6024999999999636,1.6024999999999636,1.601666666666631,SbSeBr,0.124,-0.32,1.464,-10.435,3,3,3.68,13.619,40.0,16.0,2.52
353,372,1.785000000000025,1.7925000000000182,1.7875000000000227,1.7883333333333553,SbTeBr,0.0,-0.377,1.052,-10.327,3,3,3.509,15.534,46.0,16.0,2.37
354,373,3.3450000000000273,3.3450000000000273,3.3450000000000273,3.3450000000000273,SbTeBr,0.13,-0.247,1.319,-9.937,3,3,3.817,14.635,46.0,16.0,2.37
355,374,0.42500000000001137,0.42500000000001137,0.42500000000001137,0.42500000000001137,YSeBr,0.0,-1.886,3.045,-15.416,3,3,3.163,14.926,36.0,12.0,2.243333333333333
356,375,1.6724999999999568,1.6724999999999568,1.6724999999999568,1.6724999999999568,TeTiBr,0.057,-0.903,0.183,-14.187,3,3,3.501,11.451,36.333333333333336,12.333333333333334,2.1999999999999997
357,376,1.4225000000000136,1.4225000000000136,1.4225000000000136,1.4225000000000136,ZrTeBr,0.091,-1.051,0.0,-15.346,3,3,3.599,12.599,42.333333333333336,12.333333333333334,2.1300000000000003
358,377,1.6825000000001182,1.6825000000001182,1.6825000000001182,1.6825000000001182,Ba3Mn2Cl2O5,0.038,-2.284,0.0,-81.514,12,4,10.601,16.442,24.333333333333332,5.333333333333333,2.4408333333333334
359,378,0.7350000000000136,0.7350000000000136,0.7350000000000136,0.7350000000000136,TeCrCl,0.0,-0.654,0.65,-16.361,3,3,2.964,11.853,31.0,9.666666666666666,2.3066666666666666
360,379,1.6900000000000546,1.6900000000000546,1.6900000000000546,1.6900000000000546,Sr3Mn2Cl2O5,0.0,-2.325,0.0,-81.548,12,4,10.049,15.574,19.833333333333332,5.333333333333333,2.455833333333333
361,380,0.6175000000000637,0.6175000000000637,0.6175000000000637,0.6175000000000637,Ba3Ni2Cl2O5,0.0,-1.85,0.026,-71.366,12,4,10.908,15.675,24.833333333333332,5.833333333333333,2.500833333333333
362,381,0.625,0.625,0.625,0.625,Sr3Ni2Cl2O5,0.0,-1.916,0.0,-71.704,12,4,10.356,14.665,20.333333333333332,5.833333333333333,2.515833333333333
363,382,61.9,61.9,61.9,61.9,HfICl,0.14,-1.032,0.814,-13.866,3,3,3.67,11.085,47.333333333333336,9.333333333333334,2.3733333333333335
364,383,2.9125000000000227,2.9125000000000227,2.9125000000000227,2.9125000000000227,IMgCl,0.058,-1.426,2.896,-9.16,3,3,3.024,13.648,27.333333333333332,8.666666666666666,2.376666666666667
365,384,0.4650000000001455,0.5724999999999909,0.1974999999999909,0.4116666666667091,Sr3I2Fe2O5,0.007,-1.944,0.0,-75.007,12,4,11.053,15.883,26.0,7.166666666666667,2.419166666666667
366,385,1.7250000000000227,1.7250000000000227,1.7250000000000227,1.7250000000000227,Ba3I2Mn2S5,0.029,-1.396,0.0,-65.024,12,4,12.194,22.701,33.666666666666664,7.0,1.9991666666666668
367,386,1.044999999999959,1.0424999999999613,1.0424999999999613,1.043333333333294,ITiCl,0.118,-1.015,0.745,-12.997,3,3,3.386,10.926,30.666666666666668,9.333333333333334,2.4533333333333336
368,387,1.0275000000001455,1.0275000000001455,1.0275000000001455,1.0275000000001455,Sr3I2Mn2O5,0.01,-2.12,0.0,-78.48,12,4,10.954,16.131,25.833333333333332,7.0,2.3725
369,388,61.9,61.9,61.9,61.9,IVCl,0.057,-0.775,1.1,-14.114,3,3,2.904,13.181,31.0,9.666666666666666,2.4833333333333334
370,390,61.9,61.9,61.9,61.9,ZrICl,0.08,-1.228,0.877,-14.352,3,3,3.634,11.449,36.666666666666664,9.333333333333334,2.3833333333333333
371,391,2.5049999999999955,2.5049999999999955,2.5049999999999955,2.5049999999999955,IrSCl,0.044,-0.456,1.457,-16.508,3,3,2.732,10.348,36.666666666666664,7.333333333333333,2.646666666666667
372,392,0.7800000000000864,0.7800000000000864,0.7800000000000864,0.7800000000000864,Co2Se5Al2,0.097,-0.504,0.0,-45.888,9,3,11.843,12.363,27.77777777777778,11.555555555555555,2.192222222222222
373,393,1.8125,2.0224999999999795,1.8549999999999613,1.896666666666647,SbSeCl,0.004,-0.537,1.172,-11.285,3,3,3.248,14.08,34.0,12.666666666666666,2.5866666666666664
374,394,3.632499999999993,3.632499999999993,3.8899999999999864,3.7183333333333244,SbSeCl,0.136,-0.405,1.674,-10.89,3,3,3.527,13.296,34.0,12.666666666666666,2.5866666666666664
375,395,2.1299999999999955,2.134999999999991,2.132499999999993,2.132499999999993,SbTeCl,0.0,-0.466,1.255,-10.795,3,3,3.32,15.237,40.0,12.666666666666666,2.436666666666667
376,396,0.3025000000000091,0.3025000000000091,0.3025000000000091,0.3025000000000091,Mg2Al2S5,0.022,-1.243,2.081,-42.289,9,3,12.067,11.942,14.444444444444445,4.444444444444445,2.0822222222222226
377,397,0.44249999999999545,0.3949999999999818,0.4375,0.42499999999999244,Se5Mg2Al2,0.012,-1.026,1.114,-37.357,9,3,12.821,13.28,24.444444444444443,10.0,2.0655555555555556
378,398,0.40250000000003183,0.3125,0.49250000000006366,0.40250000000003183,Te5Mg2Al2,0.036,-0.606,0.492,-32.188,9,3,13.985,15.708,34.44444444444444,10.0,1.8155555555555556
379,399,1.822499999999991,1.9025000000000318,2.180000000000007,1.9683333333333433,TeScCl,0.079,-1.568,0.809,-14.353,3,3,3.156,13.399,30.0,8.666666666666666,2.2066666666666666
380,400,2.0325000000000273,2.447499999999991,2.6100000000000136,2.363333333333344,TeICo,0.054,-0.126,0.435,-13.291,3,3,2.844,12.347,44.0,14.0,2.2133333333333334
381,401,0.21749999999997272,0.20249999999998636,0.1675000000000182,0.19583333333332575,Mn2Al2S5,0.06,-0.793,0.0,-54.435,9,3,12.052,11.699,17.333333333333332,5.555555555555555,2.1355555555555554
382,402,0.27750000000003183,0.2300000000000182,0.26499999999998636,0.2575000000000121,Mn2Al2S5,0.101,-0.751,0.0,-54.058,9,3,12.458,11.91,17.333333333333332,5.555555555555555,2.1355555555555554
383,403,0.30750000000000455,0.28000000000002956,0.2825000000000273,0.29000000000002046,ICrSe,0.048,-0.474,0.721,-15.791,3,3,3.043,12.337,37.0,13.0,2.29
384,404,0.8474999999999682,0.8625000000000682,0.8374999999999773,0.8491666666666712,Mn2Se5Al2,0.027,-0.605,0.33,-49.773,9,3,12.797,12.975,27.333333333333332,11.11111111111111,2.118888888888889
385,405,0.9424999999999955,0.9375,0.9599999999999227,0.9466666666666393,Mn2Se5Al2,0.064,-0.568,0.0,-49.436,9,3,13.218,13.31,27.333333333333332,11.11111111111111,2.118888888888889
386,406,0.1500000000000341,0.25499999999999545,0.222500000000025,0.20916666666668485,CrSeS,0.01,-0.569,0.782,-18.676,3,3,3.049,8.479,24.666666666666668,9.333333333333334,2.263333333333333
387,407,1.1224999999999454,1.1224999999999454,1.1224999999999454,1.1224999999999454,Te5Mn2Al2,0.097,-0.22,0.0,-44.915,9,3,14.322,15.506,37.333333333333336,11.11111111111111,1.8688888888888888
388,408,0.1500000000000341,0.22000000000002728,0.21500000000003183,0.19500000000003107,TeCrS,0.161,-0.318,0.261,-17.644,3,3,3.176,9.269,30.666666666666668,9.333333333333334,2.1133333333333333
389,409,0.3975000000000364,0.35000000000002274,0.4175000000000182,0.3883333333333591,TeCrSe,0.111,-0.27,0.572,-16.905,3,3,3.277,9.699,36.666666666666664,12.666666666666666,2.103333333333333
390,410,0.8050000000000637,0.8050000000000637,0.8050000000000637,0.8050000000000637,Ni2Al2S5,0.092,-0.67,0.0,-48.395,9,3,11.149,11.284,18.0,6.222222222222222,2.2155555555555555
391,411,0.2675000000000409,0.24500000000000455,0.18250000000000455,0.23166666666668334,Ni2Al2S5,0.094,-0.669,0.0,-48.378,9,3,11.401,10.943,18.0,6.222222222222222,2.2155555555555555
392,412,0.8774999999999409,0.8774999999999409,0.8774999999999409,0.8774999999999409,Ni2Se5Al2,0.075,-0.528,0.0,-44.137,9,3,11.835,12.551,28.0,11.777777777777779,2.198888888888889
393,413,0.31749999999999545,0.2825000000000273,0.2925000000000182,0.29750000000001364,Ni2Se5Al2,0.085,-0.518,0.0,-44.044,9,3,12.143,12.165,28.0,11.777777777777779,2.198888888888889
394,414,0.36750000000006366,0.23250000000007276,0.3925000000000409,0.33083333333339243,Ni2Se5Al2,0.09,-0.513,0.0,-44.0,9,3,12.531,12.416,28.0,11.777777777777779,2.198888888888889
395,415,1.4974999999999454,1.1875,1.2124999999999773,1.2991666666666408,Co2Ga2S5,0.087,-0.5,0.0,-47.155,9,3,11.723,11.097,21.77777777777778,8.222222222222221,2.2533333333333334
396,416,0.6675000000000182,0.6675000000000182,0.6675000000000182,0.6675000000000182,Co2Ga2S5,0.09,-0.497,0.0,-47.125,9,3,11.341,11.138,21.77777777777778,8.222222222222221,2.2533333333333334
397,417,0.80499999999995,0.80499999999995,0.80499999999995,0.80499999999995,Co2Ga2Se5,0.062,-0.393,0.0,-43.217,9,3,12.0,12.422,31.77777777777778,13.777777777777779,2.2366666666666664
398,418,0.5249999999999773,0.45249999999998636,0.55499999999995,0.5108333333333045,Co2Ga2Se5,0.085,-0.37,0.0,-43.009,9,3,12.499,12.333,31.77777777777778,13.777777777777779,2.2366666666666664
399,419,1.3399999999999181,1.3399999999999181,1.3399999999999181,1.3399999999999181,Te5Co2Ga2,0.088,-0.19,0.0,-39.996,9,3,12.987,14.071,41.77777777777778,13.777777777777779,1.9866666666666666
400,420,61.9,61.9,61.9,61.9,HfSeS,0.003,-1.471,0.684,-19.479,3,3,3.021,11.929,40.666666666666664,8.666666666666666,2.143333333333333
401,421,61.9,61.9,61.9,61.9,HfSeS,0.196,-1.278,0.887,-18.9,3,3,3.245,11.289,40.666666666666664,8.666666666666666,2.143333333333333
402,422,61.9,61.9,61.9,61.9,HfTeS,0.011,-1.201,0.0,-18.392,3,3,3.198,12.549,46.666666666666664,8.666666666666666,1.9933333333333334
403,423,61.9,61.9,61.9,61.9,HfTeS,0.164,-1.048,0.038,-17.932,3,3,3.391,11.961,46.666666666666664,8.666666666666666,1.9933333333333334
404,424,61.9,61.9,61.9,61.9,HfTeSe,0.006,-1.084,0.0,-17.445,3,3,3.337,12.982,52.666666666666664,12.0,1.9833333333333334
405,425,61.9,61.9,61.9,61.9,HfTeSe,0.149,-0.941,0.142,-17.016,3,3,3.52,12.438,52.666666666666664,12.0,1.9833333333333334
406,426,0.7524999999999977,0.7524999999999977,0.7524999999999977,0.7524999999999977,IrTeI,0.048,-0.189,1.038,-14.525,3,3,2.913,13.526,60.666666666666664,14.0,2.3200000000000003
407,427,0.9474999999999909,0.9474999999999909,0.9474999999999909,0.9474999999999909,RhISe,0.065,-0.336,0.545,-13.117,3,3,2.94,12.282,44.0,14.0,2.4966666666666666
408,428,1.170000000000016,1.2174999999999727,1.1924999999999955,1.193333333333328,SbIS,0.058,-0.278,1.219,-10.798,3,3,3.451,14.44,40.0,12.666666666666666,2.43
409,429,0.4000000000000057,0.4000000000000057,0.4000000000000057,0.4000000000000057,YIS,0.048,-1.797,2.89,-15.64,3,3,3.193,15.057,36.0,8.666666666666666,2.1533333333333333
410,430,0.11250000000006821,0.18000000000006366,0.13999999999998636,0.14416666666670608,Cr2O5H2,0.08,-1.526,0.51,-64.82,9,3,4.562,17.437,10.0,4.888888888888889,2.768888888888889
411,431,1.625,1.6125000000000114,1.615000000000009,1.6175000000000068,SbISe,0.019,-0.312,1.012,-10.305,3,3,3.577,15.044,46.0,16.0,2.42
412,432,1.4950000000000045,1.4975000000000023,1.4950000000000045,1.4958333333333371,SbISe,0.149,-0.183,1.007,-9.915,3,3,3.861,14.228,46.0,16.0,2.42
413,433,1.642500000000041,1.6475000000000364,1.6450000000000387,1.6450000000000387,SbTeI,0.0,-0.25,0.838,-9.84,3,3,3.705,16.148,52.0,16.0,2.27
414,434,1.4375,1.4375,1.4375,1.4375,SbTeI,0.123,-0.128,1.011,-9.472,3,3,4.012,15.195,52.0,16.0,2.27
415,435,1.4700000000000273,1.4700000000000273,1.4700000000000273,1.4700000000000273,MoSO,0.103,-1.361,1.06,-24.487,3,3,2.778,7.789,22.0,6.0,2.7266666666666666
416,436,1.4449999999999932,1.4449999999999932,1.4449999999999932,1.4449999999999932,MoSeO,0.183,-1.174,0.752,-23.331,3,3,2.881,8.144,28.0,9.333333333333334,2.716666666666667
417,437,0.5950000000000273,0.5674999999999955,0.5699999999999363,0.5774999999999864,In2Fe2Se5,0.146,-0.273,0.0,-43.481,9,3,13.492,13.905,35.55555555555556,13.555555555555555,2.218888888888889
418,438,0.125,0.1974999999999909,0.18000000000000682,0.16749999999999923,MoSeS,0.009,-0.805,1.453,-21.178,3,3,3.232,9.152,30.666666666666668,9.333333333333334,2.43
419,439,0.34000000000003183,0.34000000000003183,0.3450000000000273,0.341666666666697,Ga2Mg2S5,0.0,-1.034,1.229,-38.739,9,3,12.188,12.136,18.444444444444443,6.666666666666667,2.126666666666667
420,440,0.4399999999999409,0.37249999999994543,0.4499999999999318,0.4208333333332727,Ga2Se5Mg2,0.003,-0.89,0.438,-34.468,9,3,12.88,13.462,28.444444444444443,12.222222222222221,2.1100000000000003
421,441,0.3875000000000455,0.30499999999995,0.4824999999999591,0.3916666666666515,Te5Ga2Mg2,0.026,-0.549,0.091,-30.006,9,3,13.975,15.83,38.44444444444444,12.222222222222221,1.8600000000000003
422,442,0.1449999999999818,0.1824999999999477,0.16999999999995907,0.1658333333332962,MoTeS,0.065,-0.546,0.992,-20.124,3,3,3.373,9.795,36.666666666666664,9.333333333333334,2.28
423,443,0.8199999999999932,0.8125,0.875,0.8358333333333311,MoTeSe,0.025,-0.479,1.136,-19.327,3,3,3.476,10.208,42.666666666666664,12.666666666666666,2.27
424,444,0.21000000000003638,0.24249999999994998,0.19249999999999545,0.21499999999999395,Mn2Ga2S5,0.031,-0.592,0.0,-50.957,9,3,12.166,11.871,21.333333333333332,7.777777777777778,2.18
425,445,0.38249999999993634,0.38249999999993634,0.3874999999999318,0.3841666666666015,Mn2Ga2S5,0.061,-0.561,0.0,-50.683,9,3,12.537,12.234,21.333333333333332,7.777777777777778,2.18
426,446,0.8675000000000637,0.9075000000000273,0.8500000000000227,0.8750000000000379,Mn2Ga2Se5,0.03,-0.481,0.0,-46.985,9,3,12.851,13.148,31.333333333333332,13.333333333333334,2.163333333333333
427,447,1.2549999999999955,1.2549999999999955,1.2549999999999955,1.2549999999999955,Mn2Ga2Se5,0.031,-0.481,0.0,-46.979,9,3,12.82,13.196,31.333333333333332,13.333333333333334,2.163333333333333
428,448,0.9900000000000091,0.9800000000000182,0.9974999999999454,0.9891666666666575,Mn2Ga2Se5,0.054,-0.458,0.0,-46.775,9,3,13.235,13.599,31.333333333333332,13.333333333333334,2.163333333333333
429,449,0.17000000000001592,0.25,0.1449999999999818,0.18833333333333258,NbSeS,0.048,-0.947,0.0,-20.727,3,3,3.197,10.212,30.333333333333332,9.0,2.2433333333333336
430,450,0.8599999999999,0.9049999999999727,0.8599999999999,0.8749999999999242,Te5Mn2Ga2,0.061,-0.205,0.0,-43.107,9,3,13.889,15.109,41.333333333333336,13.333333333333334,1.913333333333333
431,451,1.1499999999999773,1.1499999999999773,1.1499999999999773,1.1499999999999773,Te5Mn2Ga2,0.079,-0.187,0.0,-42.946,9,3,14.353,15.561,41.333333333333336,13.333333333333334,1.913333333333333
432,452,1.1274999999998272,5.079999999999927,5.024999999999864,3.744166666666539,Ni2Ga2O5,0.085,-1.206,0.0,-56.781,9,3,9.534,8.469,17.555555555555557,8.444444444444445,2.7377777777777776
433,453,0.48499999999989996,0.47499999999990905,0.5074999999999363,0.48916666666658176,Ni2Ga2O5,0.091,-1.201,0.0,-56.73,9,3,9.598,8.453,17.555555555555557,8.444444444444445,2.7377777777777776
434,454,0.3025000000000091,0.3025000000000091,0.3249999999999318,0.30999999999998334,Ni2Ga2S5,0.051,-0.486,0.0,-45.064,9,3,11.922,11.315,22.0,8.444444444444445,2.26
435,455,0.86749999999995,0.86749999999995,0.86749999999995,0.86749999999995,Ni2Ga2S5,0.058,-0.478,0.0,-44.996,9,3,11.318,11.432,22.0,8.444444444444445,2.26
436,456,0.18000000000000682,0.22750000000002046,0.14249999999998408,0.18333333333333712,NbTeS,0.068,-0.76,0.0,-19.889,3,3,3.359,10.765,36.333333333333336,9.0,2.0933333333333333
437,457,0.8949999999999818,0.8949999999999818,0.9175000000000182,0.902499999999994,Ni2Ga2Se5,0.041,-0.415,0.0,-41.453,9,3,11.992,12.637,32.0,14.0,2.243333333333333
438,458,0.3550000000000182,0.25,0.36000000000001364,0.32166666666667726,Ni2Ga2Se5,0.048,-0.408,0.0,-41.387,9,3,12.649,12.535,32.0,14.0,2.243333333333333
439,459,0.32749999999998636,0.36000000000001364,0.2700000000000955,0.3191666666666985,Ni2Ga2Se5,0.054,-0.402,0.0,-41.337,9,3,12.224,12.338,32.0,14.0,2.243333333333333
440,460,1.2625000000000455,1.2625000000000455,1.2625000000000455,1.2625000000000455,Te5Ni2Ga2,0.066,-0.238,0.0,-38.47,9,3,13.018,14.474,42.0,14.0,1.9933333333333334
441,461,0.44249999999999545,0.44249999999999545,0.44249999999999545,0.44249999999999545,Te5Ni2Ga2,0.068,-0.237,0.0,-38.458,9,3,13.65,14.4,42.0,14.0,1.9933333333333334
442,462,0.3624999999999545,0.37999999999999545,0.3025000000000091,0.3483333333333197,Te5Ni2Ga2,0.081,-0.224,0.0,-38.339,9,3,13.26,14.101,42.0,14.0,1.9933333333333334
443,463,1.6299999999999955,1.6299999999999955,1.6299999999999955,1.6299999999999955,TiSO,0.087,-2.108,0.561,-22.217,3,3,2.39,8.737,15.333333333333334,5.333333333333333,2.52
444,464,1.4800000000000182,1.4800000000000182,1.4800000000000182,1.4800000000000182,WSO,0.096,-1.349,1.503,-24.736,3,3,2.803,7.819,32.666666666666664,6.0,2.793333333333333
445,465,1.4600000000000364,1.4600000000000364,1.4600000000000364,1.4600000000000364,WSeO,0.185,-1.121,1.244,-23.455,3,3,2.909,8.154,38.666666666666664,9.333333333333334,2.783333333333333
446,466,0.10249999999996362,0.1675000000000182,0.12999999999999545,0.13333333333332575,V2O5H2,0.061,-1.852,0.0,-65.984,9,3,4.583,17.636,9.777777777777779,4.666666666666667,2.7622222222222224
447,467,0.33750000000009095,0.33750000000009095,0.33750000000009095,0.33750000000009095,In2Mg2S5,0.01,-0.969,1.298,-37.876,9,3,12.673,13.074,22.444444444444443,6.666666666666667,2.1199999999999997
448,468,0.4249999999999545,0.38999999999998636,0.47499999999990905,0.42999999999995,In2Se5Mg2,0.012,-0.865,0.7,-33.956,9,3,13.378,14.393,32.44444444444444,12.222222222222221,2.1033333333333335
449,469,0.3925000000000409,0.3350000000000364,0.4275000000000091,0.3850000000000288,In2Te5Mg2,0.018,-0.557,0.358,-29.799,9,3,14.472,16.766,42.44444444444444,12.222222222222221,1.8533333333333333
450,470,0.24249999999994998,0.24249999999994998,0.24249999999994998,0.24249999999994998,In2Mn2S5,0.049,-0.519,0.0,-50.021,9,3,12.642,12.937,25.333333333333332,7.777777777777778,2.173333333333334
451,471,0.6225000000000591,0.6225000000000591,0.6225000000000591,0.6225000000000591,In2Mn2S5,0.055,-0.513,0.0,-49.967,9,3,12.695,12.942,25.333333333333332,7.777777777777778,2.173333333333334
452,472,1.2999999999999545,1.2999999999999545,1.2999999999999545,1.2999999999999545,In2Mn2Se5,0.029,-0.444,0.0,-46.37,9,3,13.318,14.134,35.333333333333336,13.333333333333334,2.1566666666666667
453,473,0.9250000000000682,0.94500000000005,0.9175000000000182,0.9291666666667121,In2Mn2Se5,0.03,-0.443,0.0,-46.365,9,3,13.338,14.108,35.333333333333336,13.333333333333334,2.1566666666666667
454,474,0.9900000000000091,0.9700000000000273,1.0049999999999955,0.9883333333333439,In2Mn2Se5,0.041,-0.433,0.0,-46.269,9,3,13.677,14.628,35.333333333333336,13.333333333333334,2.1566666666666667
455,475,1.125,1.125,1.125,1.125,PtSeS,0.012,-0.392,1.33,-15.092,3,3,2.546,11.599,42.666666666666664,10.666666666666666,2.47
456,476,0.41250000000002274,0.2925000000000182,0.2750000000000341,0.3266666666666917,PtTeSe,0.032,-0.385,0.706,-14.196,3,3,2.693,13.103,54.666666666666664,14.0,2.31
457,477,1.0550000000000637,1.0550000000000637,1.0550000000000637,1.0550000000000637,In2Te5Mn2,0.07,-0.186,0.0,-42.657,9,3,14.81,16.632,45.333333333333336,13.333333333333334,1.9066666666666667
458,478,1.947499999999991,1.947499999999991,1.947499999999991,1.947499999999991,SnSeS,0.01,-0.364,0.837,-12.71,3,3,3.07,12.386,33.333333333333336,12.0,2.3633333333333333
459,479,0.39749999999997954,1.2250000000000227,1.4049999999999727,1.0091666666666583,TaSeS,0.025,-0.937,0.0,-20.189,3,3,3.182,10.263,41.0,9.0,2.21
460,480,0.24249999999994998,0.25499999999999545,0.1449999999999818,0.2141666666666424,TiSeS,0.128,-1.096,0.505,-17.537,3,3,3.122,10.128,24.0,8.666666666666666,2.223333333333333
461,481,0.222500000000025,0.2750000000000341,0.21750000000002956,0.2383333333333629,VSeS,0.009,-0.794,0.013,-18.467,3,3,3.089,9.229,24.333333333333332,9.0,2.2533333333333334
462,482,0.152499999999975,0.24500000000000455,0.17500000000001137,0.1908333333333303,VSeS,0.023,-0.78,0.0,-18.425,3,3,3.04,9.31,24.333333333333332,9.0,2.2533333333333334
463,483,0.7975000000000136,0.7975000000000136,0.7975000000000136,0.7975000000000136,In2Ni2Se5,0.066,-0.357,0.0,-40.647,9,3,12.572,13.322,36.0,14.0,2.2366666666666664
464,484,0.3774999999999409,0.26499999999998636,0.3524999999999636,0.3316666666666303,In2Ni2Se5,0.074,-0.349,0.0,-40.58,9,3,13.039,13.432,36.0,14.0,2.2366666666666664