,ind,max_valorX,max_valorY,max_valorZ,media,formula,Ehull,HF,Gap,Energy,natoms,nspecies,thickness,uc_area,average_atomic_number,average_valence_number,average_electronegativity
2277,2408,1.3799999999999955,1.3799999999999955,1.3799999999999955,1.3799999999999955,Te4Mn2,0.038,-0.162,0.0,-33.224,6,2,4.32,21.456,43.0,13.0,1.9166666666666667
2278,2409,1.1024999999999636,0.9950000000000045,0.9950000000000045,1.0308333333333242,Te4Mn2,0.04,-0.16,0.0,-33.214,6,2,3.69,21.356,43.0,13.0,1.9166666666666667
2279,2410,1.0225000000000364,1.0225000000000364,1.0225000000000364,1.0225000000000364,CoNaP2S6,0.024,-0.412,0.616,-48.853,10,4,3.16,31.137,16.4,5.6,2.2670000000000003
2280,2411,1.0249999999999773,1.0249999999999773,1.0249999999999773,1.0249999999999773,CoSe6NaP2,0.049,-0.33,0.525,-44.458,10,4,3.313,35.062,27.2,11.6,2.2489999999999997
2281,2412,1.4950000000000045,1.4950000000000045,1.4950000000000045,1.4950000000000045,Mo2O4,0.186,-1.821,0.0,-53.826,6,2,2.619,14.729,19.333333333333332,6.0,3.013333333333333
2282,2413,0.50750000000005,0.46249999999997726,0.46249999999997726,0.47750000000000153,Mo2S4,0.18,-0.741,0.051,-43.161,6,2,3.463,18.221,24.666666666666668,6.0,2.44
2283,2414,1.1100000000000136,1.0850000000000364,1.0850000000000364,1.0933333333333621,Mo2Se4,0.109,-0.598,0.041,-39.926,6,2,3.747,19.585,36.666666666666664,12.666666666666666,2.42
2284,2415,1.1124999999999545,0.9099999999998545,1.7024999999998727,1.2416666666665606,Te6CrCuAs2,0.076,-0.03,0.0,-41.937,10,4,3.978,43.06,43.1,14.3,2.052
2285,2416,1.11749999999995,1.11749999999995,1.11749999999995,1.11749999999995,Mo2Te4,0.013,-0.288,0.0,-36.949,6,2,4.125,21.971,48.666666666666664,12.666666666666666,2.12
2286,2417,1.0950000000000273,1.2074999999999818,1.3949999999999818,1.232499999999997,CrCuSe6P2,0.0,-0.244,0.811,-47.15,10,4,3.507,34.321,28.7,12.3,2.324
2287,2418,0.5850000000000364,0.49250000000006366,0.4900000000000091,0.5225000000000364,Nb2I4,0.123,-0.369,0.0,-28.783,6,2,4.243,25.015,49.0,13.0,2.3066666666666666
2288,2419,0.3125,0.5325000000000273,0.3300000000000409,0.3916666666666894,Ni2S4,0.035,-0.265,0.824,-32.398,6,2,1.16,27.9,20.0,7.333333333333333,2.356666666666667
2289,2420,0.25,0.5649999999999409,0.30499999999995,0.37333333333329694,Ni2Se4,0.067,-0.191,1.015,-29.573,6,2,1.375,31.424,32.0,14.0,2.3366666666666664
2290,2421,61.9,61.9,61.9,61.9,Te4Ni2,0.176,-0.065,0.921,-27.702,6,2,1.56,37.027,44.0,14.0,2.0366666666666666
2291,2422,0.052500000000009095,0.04750000000001364,0.04750000000001364,0.04916666666667879,K4O2,0.058,-0.988,0.525,-21.057,6,2,2.323,29.59,15.333333333333334,2.6666666666666665,1.6933333333333334
2292,2423,0.040000000000020464,0.08000000000004093,0.0625,0.0608333333333538,K4O2,0.095,-0.951,0.608,-20.83,6,2,2.506,28.279,15.333333333333334,2.6666666666666665,1.6933333333333334
2293,2424,0.09500000000002728,0.16250000000002274,0.2125000000000341,0.1566666666666947,Rb4O2,0.0,-0.919,0.338,-19.401,6,2,2.631,31.335,27.333333333333332,2.6666666666666665,1.6933333333333334
2294,2425,61.9,61.9,61.9,61.9,Tl4O2,0.0,-0.586,0.819,-23.755,6,2,3.052,22.227,56.666666666666664,10.666666666666666,2.5066666666666664
2295,2426,1.392500000000041,1.392500000000041,1.392500000000041,1.392500000000041,Os2O4,0.138,-0.838,0.169,-47.906,6,2,2.501,14.994,30.666666666666668,6.666666666666667,3.026666666666667
2296,2427,0.5400000000000773,0.5400000000000773,0.5400000000000773,0.5400000000000773,Os2S4,0.081,-0.3,0.53,-40.491,6,2,3.093,19.501,36.0,6.666666666666667,2.4533333333333336
2297,2428,0.9175000000000182,0.61749999999995,0.6675000000000182,0.7341666666666621,InCuP2S6,0.0,-0.346,1.546,-45.097,10,4,3.416,32.937,20.4,7.0,2.354
2298,2429,0.3250000000000455,0.5699999999999363,0.27749999999991815,0.3908333333333,InCuSe6P2,0.0,-0.229,0.908,-40.356,10,4,3.567,36.609,31.2,13.0,2.3359999999999994
2299,2430,0.8849999999999909,0.8349999999999227,0.8349999999999227,0.8516666666666121,Os2Se4,0.0,-0.173,0.567,-37.353,6,2,3.331,21.126,48.0,13.333333333333334,2.433333333333333
2300,2431,0.9599999999999227,0.9449999999999363,0.9449999999999363,0.9499999999999318,Os2Te4,0.071,0.0,0.713,-35.201,6,2,3.621,23.771,60.0,13.333333333333334,2.1333333333333333
2301,2432,11.615000000000009,4.4325000000000045,4.875,6.9741666666666715,Pb2Br4,0.037,-0.928,1.938,-19.425,6,2,3.323,34.713,50.666666666666664,16.0,2.75
2302,2433,3.3200000000001637,3.292500000000018,3.292500000000018,3.3016666666667334,SbCuAs2Se6,0.098,-0.06,0.509,-38.91,10,4,3.937,39.605,35.0,15.2,2.3609999999999998
2303,2434,3.222499999999968,3.222499999999968,3.222499999999968,3.222499999999968,Pb2Cl4,0.032,-1.146,2.607,-21.533,6,2,2.939,32.944,38.666666666666664,9.333333333333334,2.8833333333333333
2304,2435,5.9375,5.782500000000027,5.782500000000027,5.834166666666685,Pb2Cl4,0.045,-1.132,2.776,-21.452,6,2,3.31,40.075,38.666666666666664,9.333333333333334,2.8833333333333333
2305,2436,2.1825000000000045,2.1825000000000045,2.1825000000000045,2.1825000000000045,Pb2F4,0.07,-2.432,4.397,-28.457,6,2,1.817,24.261,33.333333333333336,9.333333333333334,3.4299999999999997
2306,2437,3.4575000000000387,3.4575000000000387,3.4575000000000387,3.4575000000000387,Pb2I4,0.055,-0.637,1.226,-17.255,6,2,3.745,37.747,62.666666666666664,16.0,2.5500000000000003
2307,2438,4.532500000000027,4.497500000000059,4.497500000000059,4.509166666666715,Pb2I4,0.073,-0.619,1.701,-17.145,6,2,4.237,48.86,62.666666666666664,16.0,2.5500000000000003
2308,2439,2.212500000000091,2.2425000000000637,2.2250000000000227,2.2266666666667256,SbCuP2S6,0.0,-0.247,1.672,-45.749,10,4,3.5,34.467,20.6,7.2,2.3810000000000002
2309,2440,0.15499999999997272,0.23250000000001592,0.13749999999998863,0.1749999999999924,NbTeS,0.106,-0.721,0.0,-19.773,3,3,3.357,10.779,36.333333333333336,9.0,2.0933333333333333
2310,2441,0.8949999999999818,0.6324999999999363,0.7274999999999636,0.7516666666666273,SbCuSe6P2,0.0,-0.144,1.049,-41.148,10,4,3.611,37.849,31.4,13.2,2.363
2311,2442,1.5974999999999682,1.5974999999999682,1.5974999999999682,1.5974999999999682,Pd2Br4,0.016,-0.358,0.709,-16.129,6,2,2.73,30.091,38.666666666666664,14.666666666666666,2.706666666666667
2312,2443,1.4774999999999636,1.4774999999999636,1.4774999999999636,1.4774999999999636,Pd2F4,0.0,-1.285,0.782,-21.699,6,2,2.114,21.637,21.333333333333332,8.0,3.3866666666666667
2313,2444,0.31749999999999545,0.285000000000025,0.22750000000002046,0.2766666666666803,NbTeSe,0.018,-0.657,0.0,-18.985,3,3,3.498,11.132,42.333333333333336,12.333333333333334,2.0833333333333335
2314,2445,2.4049999999999727,2.4049999999999727,3.4125000000000227,2.7408333333333226,Pd2I4,0.036,-0.218,0.595,-14.861,6,2,2.936,34.003,50.666666666666664,14.666666666666666,2.506666666666667
2315,2446,0.21249999999997726,0.21249999999997726,0.16999999999995907,0.19833333333330452,NbTeSe,0.047,-0.627,0.0,-18.896,3,3,3.502,11.093,42.333333333333336,12.333333333333334,2.0833333333333335
2316,2447,0.7000000000000455,0.5750000000000455,0.6200000000000045,0.6316666666666985,Pd2S4,0.002,-0.294,1.12,-25.717,6,2,1.273,30.612,26.0,7.333333333333333,2.4533333333333336
2317,2448,0.7250000000000227,0.7250000000000227,0.7250000000000227,0.7250000000000227,Pd2S4,0.068,-0.228,0.0,-25.322,6,2,3.181,20.099,26.0,7.333333333333333,2.4533333333333336
2318,2449,61.9,61.9,61.9,61.9,Pd2Se4,0.004,-0.287,1.313,-23.294,6,2,1.487,34.042,38.0,14.0,2.433333333333333
2319,2450,1.1849999999999454,1.1849999999999454,1.1849999999999454,1.1849999999999454,Pd2Se4,0.044,-0.247,0.635,-23.053,6,2,2.297,29.806,38.0,14.0,2.433333333333333
2320,2451,61.9,61.9,61.9,61.9,Pd2Te4,0.093,-0.257,1.212,-21.999,6,2,1.684,39.464,50.0,14.0,2.1333333333333333
2321,2452,0.6399999999999864,0.6974999999999909,0.6349999999999909,0.6574999999999894,Pt2Br4,0.017,-0.251,0.88,-20.555,6,2,2.618,31.575,49.333333333333336,14.666666666666666,2.733333333333333
2322,2453,1.3550000000000182,1.3550000000000182,1.3550000000000182,1.3550000000000182,Pt2F4,0.084,-1.075,1.099,-25.504,6,2,2.09,22.313,32.0,8.0,3.4133333333333336
2323,2454,0.31999999999993634,0.5874999999999773,0.31999999999993634,0.40916666666661666,Pt2I4,0.041,-0.127,0.784,-19.383,6,2,2.843,35.084,61.333333333333336,14.666666666666666,2.533333333333333
2324,2455,61.9,61.9,61.9,61.9,Pt2S4,0.05,-0.345,1.802,-31.089,6,2,1.285,30.425,36.666666666666664,7.333333333333333,2.48
2325,2456,0.7325000000000728,0.5275000000000318,0.7875000000000227,0.6825000000000424,Pt2Se4,0.103,-0.31,1.441,-28.5,6,2,1.503,33.867,48.666666666666664,14.0,2.4599999999999995
2326,2457,0.5874999999999773,0.6625000000000227,0.5874999999999773,0.6124999999999924,Pt2Te4,0.144,-0.276,1.309,-27.181,6,2,1.713,39.15,60.666666666666664,14.0,2.16
2327,2458,0.6274999999999409,0.6274999999999409,0.7599999999999909,0.6716666666666242,VCuP2S6,0.04,-0.391,0.306,-51.311,10,4,3.365,31.053,17.8,6.2,2.339
2328,2459,0.8724999999999454,0.8724999999999454,1.1275000000000546,0.9574999999999818,VCuSe6P2,0.041,-0.274,0.335,-46.561,10,4,3.583,34.797,28.6,12.2,2.3209999999999997
2329,2460,1.5499999999999545,2.9874999999999545,2.5424999999999045,2.3599999999999377,Rh2O4,0.146,-0.689,0.0,-38.928,6,2,1.969,16.535,20.333333333333332,7.0,3.0533333333333332
2330,2461,0.19000000000005457,0.1550000000000864,0.16250000000002274,0.16916666666672123,Ru2O4,0.163,-0.925,0.045,-44.976,6,2,2.461,14.784,20.0,6.666666666666667,3.026666666666667
2331,2462,0.30500000000006366,0.26500000000010004,0.26500000000010004,0.27833333333342125,Ru2S4,0.167,-0.402,0.725,-37.649,6,2,3.086,19.231,25.333333333333332,6.666666666666667,2.4533333333333336
2332,2463,0.40999999999996817,0.2724999999999227,0.2899999999999636,0.32416666666661814,Ru2Se4,0.076,-0.343,0.779,-34.918,6,2,3.321,20.827,37.333333333333336,13.333333333333334,2.433333333333333
2333,2464,0.5500000000000682,0.25250000000005457,0.3224999999999909,0.3750000000000379,Ru2Te4,0.117,-0.219,0.642,-33.057,6,2,3.616,23.437,49.333333333333336,13.333333333333334,2.1333333333333333
2334,2465,1.1224999999999454,1.0950000000000273,1.1024999999999636,1.1066666666666454,GaP2S6Li,0.0,-0.53,2.045,-45.29,10,4,3.014,36.232,16.0,6.0,2.265
2335,2468,0.3550000000000182,0.3550000000000182,0.3550000000000182,0.3550000000000182,Au4S2,0.075,-0.02,0.659,-20.798,6,2,2.53,34.08,58.0,9.333333333333334,2.5533333333333332
2336,2469,61.9,61.9,61.9,61.9,Cs4S2,0.063,-0.938,1.269,-17.116,6,2,3.039,48.33,42.0,2.6666666666666665,1.3866666666666667
2337,2470,0.38999999999998636,0.38999999999998636,0.38999999999998636,0.38999999999998636,Cu4S2,0.012,-0.161,0.164,-23.824,6,2,2.583,25.058,24.666666666666668,9.333333333333334,2.1266666666666665
2338,2471,1.5275000000000318,1.8950000000000955,3.2875000000000227,2.2366666666667165,Cu4S2,0.044,-0.129,0.0,-23.634,6,2,3.979,15.518,24.666666666666668,9.333333333333334,2.1266666666666665
2339,2472,0.5500000000000114,0.37999999999999545,0.32499999999998863,0.41833333333333184,Nb4S2,0.036,-0.688,0.0,-53.592,6,2,6.884,11.144,32.666666666666664,5.333333333333333,1.9266666666666667
2340,2473,0.6875,0.3650000000000091,0.3299999999999841,0.46083333333333104,Ta4S2,0.059,-0.616,0.0,-51.116,6,2,6.941,11.125,54.0,5.333333333333333,1.86
2341,2474,0.5149999999999864,0.3849999999999909,0.5175000000000409,0.4725000000000061,GaSe6P2Li,0.009,-0.393,1.416,-40.352,10,4,3.224,39.6,26.8,12.0,2.247
2342,2475,0.6150000000000091,0.5674999999999955,0.5674999999999955,0.5833333333333334,Tl4S2,0.034,-0.317,1.169,-20.053,6,2,3.509,29.603,59.333333333333336,10.666666666666666,2.22
2343,2476,1.892500000000041,1.875,1.875,1.880833333333347,GaNaP2S6,0.0,-0.512,2.17,-44.525,10,4,3.185,38.086,16.8,6.0,2.2600000000000002
2344,2477,9.212499999999977,9.212499999999977,9.212499999999977,9.212499999999977,GaSe6NaP2,0.008,-0.381,1.612,-39.65,10,4,3.405,41.674,27.6,12.0,2.242
2345,2479,1.107499999999959,1.107499999999959,1.107499999999959,1.107499999999959,Au4Se2,0.042,-0.04,0.175,-19.726,6,2,3.102,31.639,64.0,12.666666666666666,2.5433333333333334
2346,2480,1.0149999999999864,1.0149999999999864,1.0149999999999864,1.0149999999999864,Cu4Se2,0.014,-0.111,0.146,-22.337,6,2,3.017,24.853,30.666666666666668,12.666666666666666,2.1166666666666667
2347,2481,0.5499999999999545,0.5724999999999909,0.5499999999999545,0.5574999999999667,Cu4Se2,0.083,-0.042,0.1,-21.922,6,2,3.846,22.262,30.666666666666668,12.666666666666666,2.1166666666666667
2348,2482,1.2475000000000591,0.8050000000000637,0.8050000000000637,0.9525000000000622,Nb4Se2,0.002,-0.553,0.0,-51.59,6,2,7.209,11.532,38.666666666666664,8.666666666666666,1.9166666666666667
2349,2483,1.3450000000000273,0.8975000000000364,0.8975000000000364,1.0466666666667,Ta4Se2,0.0,-0.487,0.0,-49.153,6,2,7.275,11.507,60.0,8.666666666666666,1.8499999999999999
2350,2484,1.6950000000001637,1.6875,1.7250000000001364,1.7025000000001,SbSe2O6H,0.0,-0.955,3.173,-54.994,10,4,5.764,20.797,16.8,8.4,2.9989999999999997
2351,2485,1.677500000000009,1.800000000000182,1.8275000000001,1.7683333333334303,SbTe2O6H,0.041,-1.116,2.798,-56.041,10,4,5.967,21.268,20.4,8.4,2.909
2352,2486,0.5299999999999727,0.41749999999996135,0.41749999999996135,0.45499999999996515,Tl4Se2,0.016,-0.335,0.883,-18.968,6,2,3.602,31.972,65.33333333333333,14.0,2.21
2353,2487,0.7775000000000318,0.7275000000000773,0.7275000000000773,0.7441666666667288,Te4Si2,0.055,0.005,0.516,-23.587,6,2,5.136,26.43,39.333333333333336,12.0,2.033333333333333
2354,2488,0.42999999999995,0.43499999999994543,0.42999999999995,0.43166666666661513,InAs2S6Li,0.087,-0.344,2.02,-41.885,10,4,3.146,40.876,21.4,8.0,2.2600000000000002
2355,2489,4.672500000000014,4.625,4.6375000000000455,4.64500000000002,Sn2I4,0.053,-0.485,1.527,-16.937,6,2,3.997,46.877,52.0,16.0,2.4266666666666667
2356,2490,0.9624999999999773,0.9624999999999773,0.9624999999999773,0.9624999999999773,InP2S6Li,0.0,-0.539,2.293,-45.237,10,4,3.056,38.389,17.8,6.0,2.262
2357,2491,0.5474999999999,0.5474999999999,0.5474999999999,0.5474999999999,InSe6P2Li,0.0,-0.41,1.632,-40.375,10,4,3.305,41.601,28.6,12.0,2.2439999999999998
2358,2492,0.30750000000000455,0.3024999999998954,0.3024999999998954,0.3041666666665985,Sr2Br4,0.054,-2.119,4.629,-22.398,6,2,3.258,35.525,36.0,12.0,2.29
2359,2493,26.585000000000036,6.32000000000005,8.817499999999995,13.907500000000027,Sr2Cl4,0.079,-2.435,5.478,-25.101,6,2,2.959,32.806,24.0,5.333333333333333,2.4233333333333333
2360,2494,0.7450000000000045,0.6999999999999318,0.6999999999999318,0.714999999999956,InAs2NaS6,0.084,-0.346,1.914,-41.329,10,4,3.313,43.011,22.2,8.0,2.255
2361,2495,0.37999999999999545,0.3349999999999227,0.4149999999999636,0.37666666666662724,InAs2Se6Na,0.081,-0.306,1.336,-37.351,10,4,3.537,46.279,33.0,14.0,2.2369999999999997
2362,2496,1.5699999999999363,1.5424999999999045,1.5424999999999045,1.5516666666665817,InNaP2S6,0.0,-0.529,2.384,-44.557,10,4,3.167,40.388,18.6,6.0,2.257
2363,2498,0.6225000000000591,0.6225000000000591,0.6225000000000591,0.6225000000000591,Au4Te2,0.0,-0.081,0.075,-19.418,6,2,3.536,31.814,70.0,12.666666666666666,2.393333333333333
2364,2499,0.8125,0.8125,0.8125,0.8125,Te2Cu4,0.043,-0.016,0.095,-21.211,6,2,3.522,24.832,36.666666666666664,12.666666666666666,1.9666666666666668
2365,2500,1.5674999999999955,1.0575000000000045,1.0575000000000045,1.2275000000000016,Nb4Te2,0.0,-0.303,0.0,-49.534,6,2,7.61,12.129,44.666666666666664,8.666666666666666,1.7666666666666668
2366,2501,1.337500000000091,1.337500000000091,1.337500000000091,1.337500000000091,Rh4Te2,0.042,-0.218,0.0,-36.309,6,2,4.276,16.642,47.333333333333336,11.333333333333334,2.22
2367,2502,1.6299999999999955,1.1449999999999818,1.1449999999999818,1.306666666666653,Ta4Te2,0.0,-0.247,0.0,-47.159,6,2,7.673,12.091,66.0,8.666666666666666,1.7
2368,2503,1.4825000000000728,1.4674999999999727,1.4674999999999727,1.4725000000000061,InSe6NaP2,0.0,-0.403,1.776,-39.729,10,4,3.393,43.8,29.4,12.0,2.239
2369,2504,1.1374999999999886,0.44249999999999545,0.46750000000002956,0.6825000000000045,Tl4Te2,0.014,-0.235,0.698,-17.813,6,2,3.724,35.912,71.33333333333333,14.0,2.06
2370,2505,0.9300000000000637,0.9300000000000637,0.9300000000000637,0.9300000000000637,Ti2Br4,0.0,-1.178,0.288,-26.787,6,2,3.796,21.422,30.666666666666668,12.666666666666666,2.486666666666667
2371,2506,2.457499999999982,3.667500000000018,2.519999999999982,2.8816666666666606,Ti2Cl4,0.0,-1.544,0.325,-29.784,6,2,3.528,19.213,18.666666666666668,6.0,2.62
2372,2507,0.7250000000000227,0.625,0.625,0.6583333333333409,I4Ti2,0.004,-0.717,0.155,-23.595,6,2,4.098,25.019,42.666666666666664,12.666666666666666,2.2866666666666666
2373,2508,0.14999999999997726,0.16250000000002274,0.21249999999997726,0.1749999999999924,Ti2O4,0.122,-2.959,2.855,-51.628,6,2,1.976,15.563,12.666666666666666,5.333333333333333,2.8066666666666666
2374,2509,0.7824999999999704,0.37000000000000455,0.45249999999998636,0.5349999999999872,Ti2S4,0.09,-1.219,0.0,-37.003,6,2,2.803,20.872,18.0,5.333333333333333,2.2333333333333334
2375,2510,0.5625,0.5625,0.6399999999999864,0.5883333333333288,PdP2S6Li,0.04,-0.412,0.103,-45.027,10,4,3.474,31.032,17.5,5.7,2.3040000000000003
2376,2511,1.2550000000001091,1.2550000000001091,1.2550000000001091,1.2550000000001091,V2Cl4,0.11,-1.063,0.0,-30.568,6,2,3.333,18.513,19.0,6.333333333333333,2.65
2377,2512,1.3100000000000591,1.3100000000000591,1.3100000000000591,1.3100000000000591,V2O4,0.113,-2.208,0.0,-50.796,6,2,2.069,14.629,13.0,5.666666666666667,2.8366666666666664
2378,2513,0.5925000000000864,0.5900000000000318,0.5900000000000318,0.5908333333333834,Te4V2,0.005,-0.318,0.0,-31.774,6,2,3.736,22.938,42.333333333333336,12.333333333333334,1.9433333333333334
2379,2514,1.5275000000000318,1.5275000000000318,1.5275000000000318,1.5275000000000318,W2O4,0.198,-1.818,0.0,-54.378,6,2,2.664,14.874,30.0,6.0,3.08
2380,2515,0.5575000000000045,0.5475000000000136,0.5475000000000136,0.5508333333333439,W2S4,0.177,-0.696,0.0,-43.461,6,2,3.488,18.326,35.333333333333336,6.0,2.5066666666666664
2381,2516,1.1750000000000682,1.1750000000000682,1.1750000000000682,1.1750000000000682,W2Se4,0.092,-0.503,0.032,-39.918,6,2,3.784,19.659,47.333333333333336,12.666666666666666,2.4866666666666664
2382,2517,1.38250000000005,1.365000000000009,1.365000000000009,1.370833333333356,W2Te4,0.0,-0.136,0.0,-36.604,6,2,4.18,22.044,59.333333333333336,12.666666666666666,2.186666666666667
2383,2519,0.6449999999999818,0.63250000000005,0.6349999999999909,0.6375000000000076,Zr2Br4,0.0,-1.34,0.591,-29.181,6,2,4.086,22.712,36.666666666666664,12.666666666666666,2.4166666666666665
2384,2520,0.9825000000000728,0.9700000000000273,0.9700000000000273,0.9741666666667091,Zr2Cl4,0.029,-1.676,0.596,-32.004,6,2,3.803,20.766,24.666666666666668,6.0,2.5500000000000003
2385,2521,1.2450000000001182,1.2450000000001182,1.2450000000001182,1.2450000000001182,Ta2RuNiSe6,0.093,-0.581,0.338,-63.045,10,4,3.785,34.199,42.2,12.4,2.241
2386,2522,0.4174999999999045,0.38249999999993634,0.4699999999999136,0.42333333333325146,Zr2I4,0.0,-0.911,0.429,-26.186,6,2,4.402,26.052,48.666666666666664,12.666666666666666,2.216666666666667
2387,2523,0.6075000000000159,0.33499999999997954,0.46249999999997726,0.4683333333333242,Zr2S4,0.066,-1.52,0.702,-40.236,6,2,2.868,23.773,24.0,5.333333333333333,2.1633333333333336
2388,2524,0.6725000000000136,1.3349999999999795,1.232500000000016,1.080000000000003,Zr2S4,0.184,-1.402,1.128,-39.529,6,2,3.245,22.114,24.0,5.333333333333333,2.1633333333333336
2389,2525,0.9674999999999727,0.8224999999999909,0.8224999999999909,0.8708333333333181,Zr2Se4,0.08,-1.287,0.251,-36.461,6,2,3.107,25.636,36.0,12.0,2.143333333333333
2390,2526,0.6650000000000773,0.7450000000000045,0.6150000000000091,0.6750000000000304,Cr3Se6,0.054,-0.432,0.478,-53.011,9,2,3.253,27.186,30.666666666666668,12.666666666666666,2.253333333333333
2391,2527,1.1825000000000045,1.1825000000000045,1.1825000000000045,1.1825000000000045,Te6Cr3,0.029,-0.185,0.0,-49.123,9,2,3.454,35.357,42.666666666666664,12.666666666666666,1.9533333333333336
2392,2528,7.6200000000000045,7.342499999999973,7.342499999999973,7.434999999999984,PdZnSe6P2,0.075,-0.208,0.065,-38.706,10,4,3.354,34.863,31.0,12.8,2.3529999999999998