,ind,max_valorX,max_valorY,max_valorZ,media,formula,Ehull,HF,Gap,Energy,natoms,nspecies,thickness,uc_area,average_atomic_number,average_valence_number,average_electronegativity
1413,1487,3.412499999999909,3.4099999999998545,3.480000000000018,3.4341666666665938,Cu4Se4Cl4,0.003,-0.351,0.872,-39.985,12,3,3.993,43.915,26.666666666666668,11.333333333333334,2.5366666666666666
1414,1488,2.5349999999998545,2.5474999999999,2.5349999999998545,2.5391666666665365,Te4Cu4Cl4,0.004,-0.339,0.94,-38.734,12,3,3.848,49.683,32.666666666666664,11.333333333333334,2.3866666666666667
1415,1489,6.965000000000032,6.965000000000032,6.965000000000032,6.965000000000032,Ga4S4Cl4,0.0,-0.902,3.512,-45.894,12,3,4.436,47.214,21.333333333333332,8.666666666666666,2.516666666666667
1416,1490,6.980000000000018,6.980000000000018,6.980000000000018,6.980000000000018,Ga4Se4Cl4,0.0,-0.869,3.011,-43.113,12,3,4.29,51.009,27.333333333333332,12.0,2.5066666666666664
1417,1491,5.537500000000023,5.537500000000023,5.537500000000023,5.537500000000023,Te4Ga4Cl4,0.002,-0.728,2.172,-40.305,12,3,4.051,57.803,33.333333333333336,12.0,2.356666666666667
1418,1492,0.6124999999999545,0.6124999999999545,0.6124999999999545,0.6124999999999545,Te4Ga4Cl4,0.023,-0.707,2.102,-40.062,12,3,4.857,56.543,33.333333333333336,12.0,2.356666666666667
1419,1493,61.9,61.9,61.9,61.9,Hf4S4Cl4,0.153,-1.507,0.0,-71.561,12,3,3.405,42.217,35.0,5.666666666666667,2.3466666666666667
1420,1494,61.9,61.9,61.9,61.9,Hf4Se4Cl4,0.128,-1.367,0.0,-67.498,12,3,3.389,43.698,41.0,9.0,2.3366666666666664
1421,1495,6.5625,6.224999999999909,6.224999999999909,6.337499999999939,Pb4I4Cl4,0.052,-0.883,2.101,-38.688,12,3,6.539,54.446,50.666666666666664,12.666666666666666,2.716666666666667
1422,1496,7.627500000000055,7.627500000000055,7.627500000000055,7.627500000000055,In4S4Cl4,0.0,-0.83,2.588,-44.461,12,3,4.193,53.102,27.333333333333332,8.666666666666666,2.506666666666667
1423,1497,61.9,61.9,61.9,61.9,In4Se4Cl4,0.0,-0.815,2.487,-41.905,12,3,4.086,57.973,33.333333333333336,12.0,2.4966666666666666
1424,1498,5.07000000000005,5.07000000000005,5.07000000000005,5.07000000000005,In4Te4Cl4,0.0,-0.705,2.175,-39.468,12,3,3.957,64.468,39.333333333333336,12.0,2.3466666666666667
1425,1499,0.45250000000010004,0.45250000000010004,0.45250000000010004,0.45250000000010004,In4Te4Cl4,0.006,-0.699,2.006,-39.395,12,3,5.32,54.149,39.333333333333336,12.0,2.3466666666666667
1426,1500,1.490000000000009,1.490000000000009,1.490000000000009,1.490000000000009,Si2F2,0.181,-1.767,0.666,-21.041,4,2,3.989,13.473,11.5,5.5,2.94
1427,1501,1.4224999999999,1.4175000000000182,1.4175000000000182,1.4191666666666454,Ni4S4Cl4,0.082,-0.388,0.681,-57.1,12,3,2.949,40.352,20.333333333333332,7.666666666666667,2.5500000000000003
1428,1502,1.3899999999999864,1.3899999999999864,1.3899999999999864,1.3899999999999864,Ti2F2,0.029,-2.273,0.0,-25.646,4,2,4.887,7.231,15.5,5.5,2.76
1429,1503,61.9,61.9,61.9,61.9,Ti4S4Cl4,0.121,-1.409,0.0,-67.124,12,3,3.28,38.809,18.333333333333332,5.666666666666667,2.4266666666666667
1430,1504,0.527499999999975,0.5149999999999864,0.30249999999995225,0.44833333333330455,Tl2F2,0.0,-1.824,3.963,-15.465,4,2,2.828,18.129,45.0,10.0,3.01
1431,1505,61.9,61.9,61.9,61.9,Zr4S4Cl4,0.148,-1.601,0.0,-72.282,12,3,3.423,43.162,24.333333333333332,5.666666666666667,2.356666666666667
1432,1506,61.9,61.9,61.9,61.9,Ti4Se4Cl4,0.103,-1.287,0.042,-63.271,12,3,3.232,40.63,24.333333333333332,9.0,2.4166666666666665
1433,1507,61.9,61.9,61.9,61.9,Zr4Se4Cl4,0.107,-1.475,0.0,-68.384,12,3,3.382,44.74,30.333333333333332,9.0,2.3466666666666667
1434,1508,0.9024999999999181,0.9024999999999181,0.9600000000000364,0.9216666666666242,Te4Ti4Cl4,0.096,-1.032,0.0,-59.099,12,3,3.794,43.082,30.333333333333332,9.0,2.266666666666667
1435,1509,7900.0,7900.0,19825.0,11875.0,Y4Te4Cl4,0.042,-1.776,0.388,-60.034,12,3,3.843,61.041,36.0,8.666666666666666,2.16
1436,1510,61.9,61.9,61.9,61.9,Zr4Te4Cl4,0.091,-1.21,0.0,-64.094,12,3,3.907,47.227,36.333333333333336,9.0,2.1966666666666668
1437,1511,1.3675000000000068,1.3675000000000068,1.3675000000000068,1.3675000000000068,Zr2F2,0.108,-2.31,0.0,-27.218,4,2,5.31,8.583,24.5,5.5,2.6550000000000002
1438,1512,0.02250000000003638,0.02500000000009095,2.027499999999918,0.6916666666666819,Cs4Cu4Se4,0.0,-0.716,1.546,-40.562,12,3,4.55,56.116,39.333333333333336,9.333333333333334,1.7466666666666668
1439,1513,1.5225000000000364,1.5225000000000364,1.5225000000000364,1.5225000000000364,Cu4O4F4,0.066,-0.915,0.687,-52.531,12,3,2.564,31.802,15.333333333333334,8.0,3.106666666666667
1440,1514,1.2625000000000455,1.2625000000000455,1.2625000000000455,1.2625000000000455,Cu4S4F4,0.047,-0.832,0.985,-47.351,12,3,2.621,39.541,18.0,8.0,2.8200000000000003
1441,1515,3.5599999999999454,3.5599999999999454,3.5599999999999454,3.5599999999999454,I4Cu4S4,0.038,-0.11,0.568,-38.248,12,3,4.743,42.781,32.666666666666664,11.333333333333334,2.3800000000000003
1442,1516,0.25749999999993634,0.1675000000000182,0.23499999999989996,0.21999999999995148,I4Cu4Se4,0.003,-0.148,0.646,-36.328,12,3,4.723,45.879,38.666666666666664,14.666666666666666,2.37
1443,1517,0.29749999999989996,0.15499999999997272,0.2899999999999636,0.24749999999994543,Te4I4Cu4,0.004,-0.14,0.564,-35.116,12,3,4.733,50.991,44.666666666666664,14.666666666666666,2.22
1444,1518,0.23500000000012733,0.21500000000014552,0.9850000000001273,0.4783333333334667,Te4K4Cu4,0.064,-0.553,1.412,-39.037,12,3,4.284,53.157,33.333333333333336,9.333333333333334,1.6066666666666667
1445,1519,0.17249999999989996,0.17249999999989996,0.27749999999991815,0.207499999999906,Tl4Cu4S4,0.024,-0.244,0.543,-43.936,12,3,5.813,32.893,42.0,10.0,2.1733333333333333
1446,1520,0.30750000000000455,0.3125,0.30000000000001137,0.30666666666667197,Fe2S2,0.0,-0.496,0.0,-28.222,4,2,2.458,12.955,21.0,7.0,2.205
1447,1521,1.2774999999999181,1.2774999999999181,1.2774999999999181,1.2774999999999181,Sn4I4F4,0.009,-1.44,2.015,-45.771,12,3,6.152,37.896,37.333333333333336,12.666666666666666,2.8666666666666667
1448,1522,0.974999999999909,0.974999999999909,0.974999999999909,0.974999999999909,Zr4N4F4,0.0,-2.585,1.934,-100.39,12,3,4.671,27.743,18.666666666666668,5.333333333333333,2.783333333333333
1449,1523,0.7375000000000114,0.7075000000000387,0.6850000000000023,0.7100000000000174,Fe2Se2,0.009,-0.261,0.0,-26.095,4,2,2.796,13.54,30.0,12.0,2.19
1450,1524,0.5250000000000341,0.4825000000000159,0.5099999999999909,0.505833333333347,Fe2Se2,0.068,-0.202,0.0,-25.856,4,2,3.621,11.708,30.0,12.0,2.19
1451,1525,0.9350000000000023,0.9475000000000477,0.6650000000000205,0.8491666666666902,Te2Fe2,0.082,-0.063,0.0,-24.745,4,2,3.669,13.102,39.0,12.0,1.965
1452,1526,0.3125,0.23250000000001592,0.2950000000000159,0.28000000000001063,Te2Fe2,0.134,-0.011,0.0,-24.538,4,2,3.992,12.664,39.0,12.0,1.965
1453,1527,6.882499999999936,6.882499999999936,6.882499999999936,6.882499999999936,I4Ga4S4,0.0,-0.597,2.006,-41.007,12,3,5.379,48.982,33.333333333333336,12.0,2.35
1454,1528,6.944999999999936,6.949999999999932,6.944999999999936,6.9466666666666015,I4Ga4Se4,0.0,-0.574,1.932,-38.348,12,3,5.218,53.005,39.333333333333336,15.333333333333334,2.3400000000000003
1455,1529,6.594999999999914,6.5499999999999545,6.5499999999999545,6.564999999999941,Te4I4Ga4,0.0,-0.447,1.737,-35.709,12,3,4.986,60.003,45.333333333333336,15.333333333333334,2.19
1456,1530,0.9974999999999454,0.9850000000000136,0.9850000000000136,0.9891666666666575,Ge4P4S4,0.0,-0.194,1.974,-58.166,12,3,3.193,48.455,21.0,8.333333333333334,2.26
1457,1531,1.607500000000016,1.607500000000016,1.607500000000016,1.607500000000016,Ga2O2,0.06,-1.45,1.556,-21.857,4,2,4.012,8.5,19.5,9.5,2.625
1458,1532,1.2650000000000432,1.2650000000000432,1.2650000000000432,1.2650000000000432,Ga2O2,0.061,-1.449,1.468,-21.853,4,2,4.014,8.516,19.5,9.5,2.625
1459,1533,1.8125,1.8049999999998363,1.8049999999998363,1.8074999999998909,Ge4Se4P4,0.002,-0.152,1.675,-55.272,12,3,3.557,50.263,27.0,11.666666666666666,2.25
1460,1534,1.9850000000001273,1.9800000000000182,1.9800000000000182,1.9816666666667213,Te4Ge4P4,0.06,-0.002,1.203,-52.364,12,3,4.086,52.877,33.0,11.666666666666666,2.0999999999999996
1461,1535,3.6175000000000637,3.5150000000001,3.8075000000000045,3.646666666666723,Sb4Ge4S4,0.008,-0.177,1.752,-54.12,12,3,3.547,55.994,33.0,11.666666666666666,2.2133333333333334
1462,1536,1.1599999999999682,1.1599999999999682,1.4099999999999682,1.2433333333333014,Ga2S2,0.0,-0.664,2.321,-16.619,4,2,4.667,11.508,23.5,9.5,2.1950000000000003
1463,1537,284.2425,284.2425,284.2425,284.2425,Ga2S2,0.004,-0.66,2.18,-16.601,4,2,4.651,11.575,23.5,9.5,2.1950000000000003
1464,1538,0.9499999999999886,0.9499999999999886,0.9499999999999886,0.9499999999999886,Ga2S2,0.048,-0.616,2.021,-16.427,4,2,2.99,18.087,23.5,9.5,2.1950000000000003
1465,1539,3.6749999999999545,3.8099999999999454,4.610000000000014,4.031666666666638,Sb4Ge4Se4,0.015,-0.138,1.488,-51.278,12,3,3.378,58.62,39.0,15.0,2.203333333333333
1466,1540,5.0049999999999955,5.0049999999999955,5.0049999999999955,5.0049999999999955,Sb4Te4Ge4,0.073,0.004,1.047,-48.464,12,3,3.7,62.608,45.0,15.0,2.0533333333333332
1467,1541,61.9,61.9,61.9,61.9,Hf4I4Se4,0.117,-0.998,0.0,-61.847,12,3,4.076,48.378,53.0,12.333333333333334,2.17
1468,1542,6.74249999999995,6.747499999999945,6.74249999999995,6.744166666666615,In4I4S4,0.0,-0.561,1.875,-40.016,12,3,5.463,55.901,39.333333333333336,12.0,2.3400000000000003
1469,1543,1.847500000000025,1.847500000000025,2.0950000000000273,1.9300000000000257,Ga2Se2,0.0,-0.601,1.765,-15.177,4,2,4.83,12.667,32.5,14.5,2.1799999999999997
1470,1544,4.4325000000000045,4.547500000000014,4.4325000000000045,4.470833333333341,Ga2Se2,0.004,-0.598,1.644,-15.163,4,2,4.813,12.738,32.5,14.5,2.1799999999999997
1471,1545,1.2475000000000023,1.2475000000000023,1.2475000000000023,1.2475000000000023,Ga2Se2,0.047,-0.554,1.609,-14.989,4,2,3.236,19.149,32.5,14.5,2.1799999999999997
1472,1546,7.042500000000018,7.024999999999977,7.024999999999977,7.030833333333324,In4I4Se4,0.0,-0.559,1.763,-37.605,12,3,5.284,59.83,45.333333333333336,15.333333333333334,2.33
1473,1547,1.8350000000000364,1.8350000000000364,1.8350000000000364,1.8350000000000364,I4Sc4O4,0.0,-2.597,1.792,-76.211,12,3,6.469,28.169,27.333333333333332,8.666666666666666,2.486666666666667
1474,1548,6.217500000000086,6.217500000000086,6.217500000000086,6.217500000000086,In4Te4I4,0.0,-0.451,1.732,-35.192,12,3,5.049,66.888,51.333333333333336,15.333333333333334,2.18
1475,1549,61.9,61.9,61.9,61.9,I4Ti4S4,0.132,-1.032,0.0,-61.375,12,3,4.105,43.462,30.333333333333332,9.0,2.2600000000000002
1476,1550,2.079999999999984,2.079999999999984,2.1024999999999636,2.0874999999999773,Te2Ga2,0.002,-0.372,1.297,-13.703,4,2,5.02,14.773,41.5,14.5,1.955
1477,1551,61.9,61.9,61.9,61.9,Te2Ga2,0.006,-0.368,1.269,-13.688,4,2,4.989,14.904,41.5,14.5,1.955
1478,1552,1.579999999999984,1.579999999999984,1.579999999999984,1.579999999999984,Te2Ga2,0.053,-0.321,0.946,-13.5,4,2,3.574,21.088,41.5,14.5,1.955
1479,1553,61.9,61.9,61.9,61.9,Zr4I4S4,0.14,-1.245,0.0,-66.773,12,3,4.232,47.333,36.333333333333336,9.0,2.19
1480,1554,61.9,61.9,61.9,61.9,I4Ti4Se4,0.105,-0.919,0.006,-57.631,12,3,3.96,45.871,36.333333333333336,12.333333333333334,2.25
1481,1555,61.9,61.9,61.9,61.9,Te4I4Ti4,0.081,-0.68,0.134,-53.657,12,3,3.736,49.609,42.333333333333336,12.333333333333334,2.1
1482,1556,0.3534999999999968,0.3534999999999968,0.3534999999999968,0.3534999999999968,Ge2H2,0.082,0.082,0.92,-15.351,4,2,3.862,14.392,16.5,7.5,2.105
1483,1557,61.9,61.9,61.9,61.9,Zr4Te4I4,0.074,-0.87,0.0,-58.781,12,3,3.913,52.687,48.333333333333336,12.333333333333334,2.03
1484,1558,0.7574999999999932,0.8199999999999932,0.86749999999995,0.8149999999999787,Ge2O2,0.051,-1.185,2.686,-24.021,4,2,2.237,14.003,20.0,10.0,2.7249999999999996
1485,1559,0.9925000000000068,4.295000000000016,2.3000000000000114,2.529166666666678,Ge2S2,0.031,-0.246,1.714,-18.174,4,2,2.564,16.368,24.0,10.0,2.295
1486,1560,0.7250000000000227,0.20500000000004093,0.6150000000000091,0.5150000000000242,Ge2S2,0.047,-0.23,1.763,-18.109,4,2,1.845,19.873,24.0,10.0,2.295
1487,1561,0.39000000000010004,0.4700000000000273,0.4874999999999545,0.44916666666669397,Ni4P4S4,0.0,-0.387,0.874,-71.408,12,3,4.022,29.614,19.666666666666668,7.0,2.2266666666666666
1488,1562,0.6049999999997908,0.7949999999998454,0.6775000000000091,0.6924999999998818,Ni4Se4P4,0.026,-0.304,0.628,-68.025,12,3,4.237,31.513,25.666666666666668,10.333333333333334,2.216666666666667
1489,1563,2.19500000000005,2.19500000000005,2.19500000000005,2.19500000000005,Ge2Se2,0.025,-0.205,1.121,-16.818,4,2,2.605,16.981,33.0,15.0,2.28
1490,1564,1.7600000000000477,1.490000000000009,1.4975000000000023,1.5825000000000198,Ge2Se2,0.046,-0.184,1.744,-16.735,4,2,1.854,21.579,33.0,15.0,2.28
1491,1565,2.492500000000007,2.492500000000007,2.492500000000007,2.492500000000007,Te2Ge2,0.054,-0.039,0.815,-15.598,4,2,3.036,18.508,42.0,15.0,2.0549999999999997
1492,1566,1.8625000000000114,1.8625000000000114,1.8625000000000114,1.8625000000000114,Te2Ge2,0.09,-0.004,1.065,-15.455,4,2,2.391,24.021,42.0,15.0,2.0549999999999997
1493,1567,0.4900000000000091,0.4900000000000091,0.5574999999998909,0.5124999999999696,Pd4P4S4,0.0,-0.456,1.195,-58.528,12,3,4.198,32.705,25.666666666666668,7.0,2.3233333333333337
1494,1568,0.9875000000001819,0.9875000000001819,1.0075000000001637,0.9941666666668425,Pd4Se4P4,0.002,-0.406,1.103,-55.541,12,3,4.414,34.555,31.666666666666668,10.333333333333334,2.313333333333333
1495,1569,0.9425000000001091,1.0150000000001,1.2300000000000182,1.0625000000000757,Pd4Te4P4,0.076,-0.323,0.733,-53.437,12,3,4.62,37.421,37.666666666666664,10.333333333333334,2.1633333333333336
1496,1570,5.232500000000073,4.967499999999973,5.097500000000082,5.099166666666709,Pt4P4S4,0.0,-0.558,1.702,-69.888,12,3,4.259,32.389,36.333333333333336,7.0,2.35
1497,1571,0.01999999999998181,0.03750000000002274,0.03499999999996817,0.030833333333324237,Ni2H2,0.053,0.011,0.0,-21.1,4,2,3.882,5.383,14.5,5.5,2.055
1498,1572,0.849999999999909,0.849999999999909,0.8774999999998272,0.8591666666665484,Pt4Se4P4,0.062,-0.496,1.503,-66.754,12,3,4.492,34.209,42.333333333333336,10.333333333333334,2.34
1499,1573,6.1200000000000045,6.1200000000000045,6.1200000000000045,6.1200000000000045,Si4P4S4,0.015,-0.384,2.252,-63.975,12,3,3.078,45.119,15.0,5.0,2.223333333333333
1500,1574,0.29750000000001364,0.3149999999999977,0.3025000000000091,0.3050000000000068,Pd2H2,0.051,-0.03,0.0,-14.407,4,2,3.917,6.922,23.5,5.5,2.2
1501,1575,0.23750000000001137,0.2574999999999932,0.24500000000000455,0.2466666666666697,Pt2H2,0.018,0.018,0.0,-19.285,4,2,4.468,6.631,39.5,5.5,2.24
1502,1576,2.2024999999998727,2.2024999999998727,2.2024999999998727,2.2024999999998727,Se4Si4P4,0.013,-0.277,1.992,-60.309,12,3,3.442,46.988,21.0,8.333333333333334,2.213333333333333
1503,1577,2.3824999999999363,2.3824999999999363,2.3824999999999363,2.3824999999999363,Te4Si4P4,0.035,-0.067,1.524,-56.672,12,3,3.978,49.737,27.0,8.333333333333334,2.063333333333333
1504,1578,4.125,2.599999999999909,3.384999999999991,3.369999999999967,Pd4Sb4S4,0.062,-0.314,0.643,-52.983,12,3,4.868,38.013,37.666666666666664,10.333333333333334,2.276666666666667
1505,1579,0.46100000000001273,0.46100000000001273,0.46100000000001273,0.46100000000001273,Si2H2,0.005,0.005,2.171,-17.425,4,2,3.725,13.141,7.5,2.5,2.05
1506,1580,0.45324999999999704,0.45324999999999704,0.45324999999999704,0.45324999999999704,Sn2H2,0.171,0.171,0.236,-14.077,4,2,4.293,19.178,25.5,7.5,2.08
1507,1581,5.314999999999941,5.600000000000023,5.314999999999941,5.409999999999968,Sb4Si4S4,0.057,-0.278,2.168,-58.874,12,3,3.487,52.643,27.0,8.333333333333334,2.1766666666666663
1508,1582,5.400000000000091,5.215000000000032,5.477500000000077,5.364166666666733,Sb4Se4Si4,0.044,-0.181,1.884,-55.324,12,3,3.325,55.415,33.0,11.666666666666666,2.1666666666666665
1509,1583,61.9,61.9,61.9,61.9,Hf2I2,0.175,-0.416,0.0,-19.634,4,2,6.558,11.249,62.5,10.5,1.98
1510,1584,6.217499999999973,6.217499999999973,6.217499999999973,6.217499999999973,Sb4Te4Si4,0.083,0.014,1.36,-51.874,12,3,3.596,59.63,39.0,11.666666666666666,2.016666666666667
1511,1586,2.3174999999999955,2.3174999999999955,2.3174999999999955,2.3174999999999955,CuBrCl,0.0,-0.433,0.0,-8.344,3,3,2.882,13.189,27.0,11.666666666666666,2.6733333333333333
1512,1587,0.5974999999999682,0.5974999999999682,0.5974999999999682,0.5974999999999682,CrBrS,0.044,-0.766,1.155,-17.368,3,3,2.852,10.75,25.0,9.666666666666666,2.4
1513,1588,1.072499999999991,1.9050000000000296,1.9300000000000068,1.6358333333333424,CrSeBr,0.0,-0.706,1.392,-16.595,3,3,2.943,11.385,31.0,13.0,2.39
1514,1589,2.1850000000000023,2.1850000000000023,2.1850000000000023,2.1850000000000023,TeCrBr,0.0,-0.528,0.834,-15.782,3,3,3.073,12.402,37.0,13.0,2.2399999999999998
1515,1590,3.5649999999999977,2.8774999999999977,2.8774999999999977,3.1066666666666642,INiBr,0.016,-0.252,0.45,-11.066,3,3,2.911,12.827,38.666666666666664,14.666666666666666,2.5100000000000002
1516,1591,0.20750000000003865,0.2750000000000341,0.23750000000001137,0.24000000000002805,MnBrS,0.12,-0.555,0.0,-17.045,3,3,2.888,11.454,25.333333333333332,10.0,2.3633333333333333
1517,1592,3.472500000000025,3.472500000000025,3.472500000000025,3.472500000000025,MnSeBr,0.104,-0.522,0.0,-16.351,3,3,3.036,12.026,31.333333333333332,13.333333333333334,2.353333333333333
1518,1593,0.5375000000000227,0.5400000000000205,0.5375000000000227,0.5383333333333553,TeMnBr,0.097,-0.394,0.0,-15.688,3,3,3.24,12.276,37.333333333333336,13.333333333333334,2.2033333333333336
1519,1594,3.3700000000000045,3.3700000000000045,3.3700000000000045,3.3700000000000045,NiBrS,0.153,-0.2,0.0,-13.511,3,3,2.737,10.183,26.333333333333332,11.0,2.4833333333333334
1520,1595,1.2825000000000273,1.2425000000000068,1.0024999999999977,1.175833333333344,TeVBr,0.158,-0.435,0.0,-14.618,3,3,3.214,12.256,36.666666666666664,12.666666666666666,2.23
1521,1596,0.7374999999999545,0.7374999999999545,0.7374999999999545,0.7374999999999545,CoSCl,0.013,-0.554,1.065,-15.753,3,3,2.583,9.237,20.0,7.333333333333333,2.54
1522,1597,0.14250000000004093,0.18999999999999773,0.17000000000001592,0.1675000000000182,CrSCl,0.009,-0.938,1.524,-18.084,3,3,2.742,10.249,19.0,6.333333333333333,2.466666666666667
1523,1598,2.660000000000025,2.660000000000025,2.660000000000025,2.660000000000025,CrSeCl,0.0,-0.859,1.604,-17.254,3,3,2.833,10.866,25.0,9.666666666666666,2.4566666666666666
1524,1599,0.22250000000008185,0.18500000000005912,0.21500000000003183,0.2075000000000576,Hg2I2,0.0,-0.293,1.277,-5.899,4,2,5.924,17.334,66.5,14.5,2.33
1525,1600,1.8600000000000136,1.8600000000000136,1.8600000000000136,1.8600000000000136,MnClF,0.088,-1.63,2.261,-17.978,3,3,2.295,13.975,17.0,7.0,2.8966666666666665
1526,1601,1.4225000000000136,3.1299999999999955,3.420000000000016,2.657500000000008,NiClF,0.063,-1.129,1.223,-14.007,3,3,2.288,9.526,18.0,8.0,3.016666666666667
1527,1602,1.2124999999999773,1.2124999999999773,1.2124999999999773,1.2124999999999773,MnSCl,0.106,-0.707,0.0,-17.701,3,3,2.794,10.994,19.333333333333332,6.666666666666667,2.43
1528,1603,0.9250000000000114,0.9250000000000114,0.9250000000000114,0.9250000000000114,MnSeCl,0.098,-0.667,0.0,-16.984,3,3,2.941,11.542,25.333333333333332,10.0,2.42
1529,1604,0.8499999999999659,0.6824999999999477,0.6824999999999477,0.7383333333332871,TeMnCl,0.1,-0.53,0.0,-16.296,3,3,3.127,12.561,31.333333333333332,10.0,2.27
1530,1605,0.25499999999999545,0.23500000000001364,0.25499999999999545,0.24833333333333485,ICrS,0.12,-0.499,0.387,-16.463,3,3,2.948,11.69,31.0,9.666666666666666,2.3000000000000003
1531,1606,2.1850000000000023,2.1850000000000023,2.1850000000000023,2.1850000000000023,In2I2,0.085,-0.403,0.988,-10.094,4,2,6.352,17.385,51.0,15.0,2.22
1532,1607,1.0600000000000023,1.1574999999999704,1.1299999999999955,1.1158333333333228,TeICr,0.008,-0.341,0.654,-15.114,3,3,3.172,13.356,43.0,13.0,2.14
1533,1608,1.302500000000009,1.302500000000009,1.302500000000009,1.302500000000009,MnOF,0.113,-1.909,0.0,-22.155,3,3,1.963,8.434,14.0,6.666666666666667,2.99
1534,1609,0.26499999999998636,0.26499999999998636,0.28000000000002956,0.27000000000000074,I2K2,0.063,-1.456,3.709,-11.221,4,2,3.732,24.709,36.0,9.0,1.74