,ind,max_valorX,max_valorY,max_valorZ,media,formula,Ehull,HF,Gap,Energy,natoms,nspecies,thickness,uc_area,average_atomic_number,average_valence_number,average_electronegativity
3015,3196,1.75750000000005,1.75750000000005,1.75750000000005,1.75750000000005,HgPb2I2S2,0.028,-0.487,1.81,-22.926,7,4,5.334,33.13,54.57142857142857,12.285714285714286,2.448571428571429
3016,3197,1.625,1.625,1.625,1.625,HgSn2I2S2,0.023,-0.398,1.837,-22.899,7,4,5.163,31.884,45.42857142857143,12.285714285714286,2.3428571428571425
3017,3198,0.3925000000000409,0.35000000000002274,0.38999999999998636,0.37750000000001666,NbMnSe4,0.027,-0.647,0.211,-37.854,6,3,3.373,19.034,33.666666666666664,12.666666666666666,2.225
3018,3199,2.027499999999918,2.0850000000000364,3.537499999999909,2.5499999999999545,Au2Hg2Br6,0.079,-0.303,0.782,-20.572,10,3,3.352,45.886,52.8,14.8,2.6839999999999997
3019,3200,0.4550000000000409,0.4550000000000409,0.4550000000000409,0.4550000000000409,PdNiS4,0.079,-0.219,0.711,-28.695,6,3,2.471,20.7,23.0,7.333333333333333,2.405
3020,3201,0.012500000000045475,0.32000000000005,0.375,0.23583333333336517,Mn2NO2H2,0.165,-0.778,0.0,-50.131,7,4,6.556,8.166,10.714285714285714,4.714285714285714,2.488571428571429
3021,3202,0.29500000000007276,0.4250000000000682,0.35750000000007276,0.3591666666667379,TaNiSe4,0.097,-0.502,0.0,-34.006,6,3,3.429,21.061,39.5,13.166666666666666,2.268333333333333
3022,3203,0.41250000000002274,0.41250000000002274,0.41250000000002274,0.41250000000002274,PtSnS4,0.0,-0.422,1.302,-29.254,6,3,2.81,22.88,32.0,8.0,2.4266666666666667
3023,3204,0.009999999999990905,0.08249999999998181,0.22749999999996362,0.10666666666664544,Ti2NO2H2,0.147,-1.645,0.0,-50.141,7,4,6.665,8.107,9.857142857142858,3.857142857142857,2.4857142857142853
3024,3205,1.8774999999999409,1.8774999999999409,1.8774999999999409,1.8774999999999409,SnSO4,0.063,-1.317,4.199,-36.533,6,3,1.898,22.301,16.333333333333332,7.333333333333333,3.0500000000000003
3025,3206,7.970000000000027,7.970000000000027,7.970000000000027,7.970000000000027,Au2Ag2Cl8,0.0,-0.389,0.909,-30.882,12,3,2.822,58.727,32.333333333333336,8.333333333333334,2.8516666666666666
3026,3207,5.852499999999964,5.852499999999964,5.852499999999964,5.852499999999964,Ag2I8Cu2,0.043,-0.111,0.118,-26.186,12,3,3.423,65.724,48.0,15.0,2.4116666666666666
3027,3208,6.739999999999952,6.739999999999952,6.739999999999952,6.739999999999952,SrCa2Br2S2,0.042,-2.134,3.106,-31.96,7,4,9.975,15.31,25.714285714285715,7.428571428571429,2.0042857142857144
3028,3209,2.072499999999991,2.072499999999991,2.072499999999991,2.072499999999991,Bi2As2O8,0.06,-1.247,3.07,-74.639,12,3,3.404,35.963,24.666666666666668,9.0,2.9933333333333336
3029,3210,1.4300000000000637,1.4300000000000637,1.4300000000000637,1.4300000000000637,Zr4Se4S2Cl4,0.073,-1.51,0.594,-79.986,14,4,6.239,46.005,28.285714285714285,8.571428571428571,2.38
3030,3211,61.9,61.9,61.9,61.9,Hf2Zr2ISe2Br2S3,0.091,-1.366,0.0,-70.059,12,6,6.246,40.273,38.583333333333336,9.75,2.223333333333333
3031,3212,0.8900000000001,0.8900000000001,0.8900000000001,0.8900000000001,Au2I8Mn2,0.022,-0.229,0.259,-40.264,12,3,3.773,83.795,52.666666666666664,14.333333333333334,2.455
3032,3213,61.9,61.9,61.9,61.9,Bi2P2O8,0.081,-1.849,3.332,-83.26,12,3,3.034,34.813,21.666666666666668,7.333333333333333,2.9949999999999997
3033,3214,61.9,61.9,61.9,61.9,Hf2BrS2Cl3,0.0,-1.644,2.254,-43.261,8,4,6.162,30.133,32.75,7.25,2.5250000000000004
3034,3215,1.8950000000002092,1.8950000000002092,1.900000000000091,1.8966666666668364,K2Br2Cl8,0.002,-0.66,2.441,-27.803,12,3,3.362,60.293,20.333333333333332,7.666666666666667,2.736666666666667
3035,3216,1.1725000000000136,1.1725000000000136,1.1725000000000136,1.1725000000000136,V2Br3ClO2,0.029,-1.452,0.901,-45.452,8,4,3.861,25.737,23.0,10.0,2.7725
3036,3217,1.5775000000001,1.5775000000001,1.5775000000001,1.5775000000001,K2Br2F8,0.063,-1.699,3.383,-38.687,12,3,2.631,45.714,15.0,7.666666666666667,3.283333333333333
3037,3218,1.9449999999999363,1.9449999999999363,1.947499999999991,1.9458333333332878,Rb2Br2Cl8,0.0,-0.672,2.415,-27.335,12,3,3.378,65.179,23.333333333333332,7.666666666666667,2.736666666666667
3038,3219,61.9,61.9,61.9,61.9,HfZr2I2S3,0.078,-1.294,0.0,-47.859,8,4,5.522,28.743,38.25,8.0,2.1275000000000004
3039,3220,1.1300000000001091,1.1300000000001091,1.5175000000001546,1.259166666666791,K2Cl2F8,0.0,-1.528,3.656,-37.034,12,3,2.538,43.597,12.0,6.0,3.3166666666666664
3040,3221,0.31749999999988177,0.2199999999997999,0.21249999999986358,0.24999999999984843,Mo2Cr2S8,0.017,-0.779,1.014,-83.199,12,3,3.093,33.758,21.666666666666668,6.0,2.356666666666667
3041,3222,0.7625000000000455,0.6875,0.7100000000000364,0.7200000000000273,Mo2Cr2Se8,0.016,-0.581,0.819,-76.058,12,3,3.303,37.064,33.666666666666664,12.666666666666666,2.3366666666666664
3042,3223,2.909999999999968,2.909999999999968,2.909999999999968,2.909999999999968,IV2Br3O2,0.035,-1.319,0.83,-44.083,8,4,4.048,26.633,27.5,11.25,2.71
3043,3224,0.7799999999999727,0.6075000000000728,0.6575000000000273,0.681666666666691,Mo2Te8Cr2,0.067,-0.19,0.556,-69.139,12,3,3.584,42.794,45.666666666666664,12.666666666666666,2.0366666666666666
3044,3225,0.6275000000000546,0.7825000000000273,0.6349999999999909,0.681666666666691,Cr2P2S8,0.0,-0.458,0.819,-67.666,12,3,3.713,40.047,17.166666666666668,5.833333333333333,2.361666666666667
3045,3226,0.33999999999991815,0.2400000000000091,0.24250000000006366,0.2741666666666636,W2Cr2S8,0.014,-0.759,0.941,-83.52,12,3,3.096,33.89,27.0,6.0,2.39
3046,3227,0.7875000000001364,0.7074999999999818,0.7375000000001819,0.7441666666667667,W2Cr2Se8,0.015,-0.525,0.759,-75.952,12,3,3.306,37.176,39.0,12.666666666666666,2.3699999999999997
3047,3228,0.8049999999998363,0.6424999999999272,0.6849999999999454,0.7108333333332363,W2Te8Cr2,0.082,-0.093,0.497,-68.544,12,3,3.588,42.948,51.0,12.666666666666666,2.07
3048,3229,2.4299999999998363,2.4299999999998363,2.4299999999998363,2.4299999999998363,Cs2I2Cl8,0.0,-0.86,2.481,-29.221,12,3,3.528,73.637,29.333333333333332,7.666666666666667,2.6816666666666666
3049,3230,1.5899999999999181,1.5899999999999181,1.5899999999999181,1.5899999999999181,Cs2I2F8,0.0,-1.978,3.294,-41.057,12,3,2.778,58.45,24.0,7.666666666666667,3.2283333333333335
3050,3231,1.0699999999999363,1.052500000000009,1.052500000000009,1.0583333333333182,Fe2Se2O8,0.073,-0.846,0.4,-76.2,12,3,3.628,27.971,15.333333333333334,8.0,3.0233333333333334
3051,3232,1.0199999999999818,1.0174999999999272,1.0174999999999272,1.0183333333332787,I2Cu2SeCl3,0.035,-0.293,0.0,-21.488,8,4,5.299,35.567,31.125,11.625,2.6437500000000003
3052,3233,61.9,61.9,61.9,61.9,Hf2Ge2S8,0.061,-0.909,1.21,-67.571,12,3,6.732,36.585,28.0,7.0,2.2716666666666665
3053,3234,61.9,61.9,61.9,61.9,Hf2Ge2Se8,0.022,-0.785,1.072,-61.327,12,3,6.993,39.295,40.0,13.666666666666666,2.2516666666666665
3054,3235,61.9,61.9,61.9,61.9,Hf2Te8Ge2,0.008,-0.464,0.565,-55.247,12,3,7.42,44.457,52.0,13.666666666666666,1.9516666666666669
3055,3236,0.5625,0.5674999999998818,0.5625,0.5641666666666273,Co2As4Br4O6,0.046,-0.858,0.801,-85.927,16,4,5.786,41.409,23.375,11.375,2.81
3056,3237,0.9975000000001728,0.9975000000001728,0.9975000000001728,0.9975000000001728,Co2As4Cl4O6,0.05,-0.946,0.82,-88.138,16,4,5.297,41.152,18.875,8.875,2.8600000000000003
3057,3238,0.24749999999994543,0.3650000000000091,0.24749999999994543,0.2866666666666333,I4Co2As4O6,0.077,-0.741,0.762,-83.624,16,4,6.406,42.185,27.875,11.375,2.7350000000000003
3058,3239,1.0224999999999227,1.0199999999999818,1.0199999999999818,1.0208333333332955,Zr2Ge2S8,0.026,-0.94,1.088,-67.74,12,3,6.758,36.827,22.666666666666668,7.0,2.276666666666667
3059,3240,1.5450000000000728,1.5075000000001637,1.5075000000001637,1.5200000000001335,Zr2Ge2Se8,0.0,-0.828,0.999,-61.63,12,3,7.019,39.51,34.666666666666664,13.666666666666666,2.2566666666666664
3060,3241,3.7899999999999636,3.822499999999991,3.8050000000000637,3.8058333333333394,Zr2Te8Ge2,0.007,-0.522,0.522,-55.739,12,3,7.451,44.634,46.666666666666664,13.666666666666666,1.9566666666666668
3061,3242,61.9,61.9,61.9,61.9,Hf2Mn2Br8,0.161,-0.949,0.442,-58.511,12,3,4.175,47.868,39.5,13.166666666666666,2.4483333333333333
3062,3243,0.4874999999999545,0.4874999999999545,0.4874999999999545,0.4874999999999545,Bi4I4Co2O6,0.102,-0.879,0.62,-85.88,16,4,7.196,46.08,40.375,11.375,2.695
3063,3244,61.9,61.9,61.9,61.9,Hf2Te8Si2,0.012,-0.43,0.611,-56.612,12,3,7.352,43.507,49.0,12.0,1.9333333333333336
3064,3245,61.9,61.9,61.9,61.9,Hf2Sn2S8,0.078,-0.919,1.183,-66.779,12,3,6.993,39.543,31.0,7.0,2.263333333333333
3065,3246,0.5975000000000819,0.6000000000001364,0.5975000000000819,0.5983333333334334,Sb4Co2Br4O6,0.02,-1.018,0.831,-87.461,16,4,6.151,43.738,27.875,11.375,2.7775
3066,3247,61.9,61.9,61.9,61.9,Hf2Sn2Se8,0.044,-0.804,0.946,-60.637,12,3,7.189,42.151,43.0,13.666666666666666,2.243333333333333
3067,3248,61.9,61.9,61.9,61.9,Hf2Sn2Te8,0.033,-0.488,0.507,-54.624,12,3,7.594,47.066,55.0,13.666666666666666,1.9433333333333334
3068,3249,0.9850000000001273,0.9850000000001273,0.9850000000001273,0.9850000000001273,Sb4Co2Cl4O6,0.016,-1.108,0.861,-89.69,16,4,5.765,43.042,23.375,8.875,2.8275
3069,3250,61.9,61.9,61.9,61.9,Hf2Ti2Se8,0.16,-1.08,0.646,-69.214,12,3,3.419,44.701,38.333333333333336,12.0,2.1733333333333333
3070,3251,61.9,61.9,61.9,61.9,Hf2Te8Ti2,0.129,-0.636,0.037,-61.667,12,3,3.694,50.754,50.333333333333336,12.0,1.8733333333333337
3071,3252,0.2799999999999727,0.36750000000006366,0.2799999999999727,0.3091666666666697,Sb4I4Co2O6,0.025,-0.9,0.801,-85.148,16,4,6.727,44.759,32.375,11.375,2.7025
3072,3253,61.9,61.9,61.9,61.9,Hf2Zr2Se8,0.161,-1.2,0.841,-72.086,12,3,3.465,47.157,41.333333333333336,12.0,2.138333333333333
3073,3254,61.9,61.9,61.9,61.9,Hf2Zr2Te8,0.121,-0.742,0.166,-64.367,12,3,3.72,53.083,53.333333333333336,12.0,1.8383333333333336
3074,3255,2.3300000000001546,2.3300000000001546,2.332499999999982,2.3308333333334303,I2K2Cl8,0.002,-0.815,2.455,-29.459,12,3,3.487,62.919,23.333333333333332,7.666666666666667,2.686666666666667
3075,3256,2.3825000000001637,2.3825000000001637,2.3825000000001637,2.3825000000001637,Rb2I2Cl8,0.0,-0.832,2.476,-29.042,12,3,3.507,67.406,26.333333333333332,7.666666666666667,2.686666666666667
3076,3257,0.6175000000000637,0.6299999999998818,0.6175000000000637,0.6216666666666697,Ni2As4Br4O6,0.077,-0.838,1.044,-83.646,16,4,5.375,41.837,23.5,11.5,2.81375
3077,3258,0.8224999999999909,0.8224999999999909,0.8224999999999909,0.8224999999999909,Ni2As4Cl4O6,0.075,-0.928,1.208,-85.879,16,4,5.011,41.364,19.0,9.0,2.86375
3078,3259,0.38000000000010914,0.42250000000012733,0.37000000000011823,0.39083333333345155,I4Ni2As4O6,0.095,-0.716,0.594,-81.27,16,4,5.895,42.596,28.0,11.5,2.73875
3079,3260,1.3125,1.3125,1.3125,1.3125,Bi4Ni2Br4O6,0.057,-0.941,0.825,-85.333,16,4,5.98,45.28,36.0,11.5,2.77375
3080,3261,0.43250000000011823,0.3975000000000364,0.42250000000012733,0.41750000000009396,Ir2Nb2S8,0.0,-0.818,0.361,-81.641,12,3,3.336,39.513,30.333333333333332,6.333333333333333,2.3533333333333335
3081,3262,0.9324999999998909,0.9324999999998909,0.9324999999998909,0.9324999999998909,Bi4I4Ni2O6,0.069,-0.812,0.605,-82.842,16,4,6.666,47.838,40.5,11.5,2.69875
3082,3263,0.9175000000000182,0.8224999999999909,0.8299999999999272,0.8566666666666455,Ir2Nb2Te8,0.008,-0.424,0.047,-69.926,12,3,4.029,47.662,54.333333333333336,13.0,2.0333333333333337
3083,3264,0.6074999999998454,0.6099999999999,0.6074999999998454,0.608333333333197,Sb4Ni2Br4O6,0.031,-0.985,1.018,-84.956,16,4,5.591,44.028,28.0,11.5,2.78125
3084,3265,1.009999999999991,1.009999999999991,1.009999999999991,1.009999999999991,Sb4Ni2Cl4O6,0.024,-1.079,1.23,-87.267,16,4,5.213,43.427,23.5,9.0,2.83125
3085,3266,1.4149999999999636,1.4149999999999636,1.4149999999999636,1.4149999999999636,Ir2Ni2S8,0.065,-0.314,0.594,-69.436,12,3,2.735,39.902,28.166666666666668,7.166666666666667,2.405
3086,3267,0.44250000000010914,0.41000000000008185,0.43499999999994543,0.42916666666671216,Ta2Ir2S8,0.0,-0.84,0.492,-80.883,12,3,3.345,39.62,35.666666666666664,6.333333333333333,2.3366666666666664
3087,3268,0.21250000000009095,0.2625000000000455,0.21250000000009095,0.22916666666674246,Sb4I4Ni2O6,0.05,-0.85,0.647,-82.37,16,4,6.327,46.19,32.5,11.5,2.70625
3088,3269,0.9375,0.8800000000001091,0.8900000000001,0.9025000000000697,Ta2Ir2Te8,0.007,-0.39,0.047,-68.501,12,3,4.031,47.767,59.666666666666664,13.0,2.016666666666667
3089,3270,0.19249999999999545,0.15250000000003183,0.13999999999998636,0.1616666666666712,Mo2V2S8,0.02,-0.88,0.0,-82.641,12,3,3.06,35.276,21.5,5.833333333333333,2.3516666666666666
3090,3271,0.6299999999998818,0.5625,0.5749999999998181,0.5891666666665666,Mo2V2Se8,0.028,-0.68,0.0,-75.478,12,3,3.298,38.352,33.5,12.5,2.3316666666666666
3091,3272,0.6400000000001,0.5025000000000546,0.5525000000000091,0.5650000000000546,Mo2Te8V2,0.03,-0.281,0.0,-68.463,12,3,3.607,43.889,45.5,12.5,2.0316666666666667
3092,3273,1.4049999999999727,1.4049999999999727,1.4049999999999727,1.4049999999999727,W2Mo2O8,0.005,-2.01,1.083,-110.488,12,3,2.462,27.728,24.666666666666668,6.0,3.046666666666667
3093,3274,0.2899999999999636,0.25499999999999545,0.27499999999997726,0.2733333333333121,W2Mo2S8,0.0,-0.9,1.532,-88.804,12,3,3.134,35.175,30.0,6.0,2.473333333333333
3094,3275,0.7774999999999181,0.7400000000000091,0.7749999999998636,0.7641666666665969,W2Mo2Se8,0.0,-0.653,1.27,-81.079,12,3,3.347,38.189,42.0,12.666666666666666,2.453333333333333
3095,3276,0.6924999999998818,0.6050000000000182,0.6675000000000182,0.6549999999999727,W2Mo2Te8,0.011,-0.207,0.862,-73.497,12,3,3.617,43.646,54.0,12.666666666666666,2.1533333333333333
3096,3277,1.6649999999999636,1.6649999999999636,1.6649999999999636,1.6649999999999636,Mo2Zn2O8,0.054,-1.845,2.915,-87.906,12,3,4.467,23.178,17.333333333333332,7.0,2.9283333333333332
3097,3278,0.9224999999999,0.8424999999999727,0.8424999999999727,0.8691666666666151,Nb2Rh2Te8,0.0,-0.477,0.081,-66.314,12,3,4.019,47.637,49.0,13.0,2.046666666666667
3098,3279,4.884999999999991,4.884999999999991,4.884999999999991,4.884999999999991,Sb4I4Zn2O6,0.001,-1.081,2.319,-73.953,16,4,10.221,40.388,32.75,11.75,2.67375
3099,3280,61.9,61.9,61.9,61.9,Hf2Ti2Br3S4Cl,0.0,-1.497,0.0,-69.208,12,5,5.564,35.5,31.166666666666668,8.166666666666666,2.3366666666666664
3100,3281,2.4375,2.4375,2.4375,2.4375,Ir2Pd2Br3S4Cl,0.059,-0.374,0.0,-53.535,12,5,5.731,34.464,36.0,10.0,2.5966666666666667
3101,3282,61.9,61.9,61.9,61.9,Hf4Se2Br3S2Cl,0.008,-1.443,0.0,-68.996,12,5,5.618,37.988,42.5,9.833333333333334,2.2916666666666665
3102,3283,0.5149999999998727,1.0649999999998272,0.5074999999999363,0.6958333333332121,Sb2P2O8,0.005,-1.864,4.374,-82.903,12,3,3.082,33.638,16.333333333333332,7.333333333333333,3.0
3103,3284,1.1675000000000182,1.1299999999999955,1.1475000000000364,1.14833333333335,Sc2P2S8,0.0,-0.949,1.896,-64.063,12,3,4.901,40.585,16.666666666666668,5.333333333333333,2.311666666666667
3104,3285,1.2250000000001364,1.1900000000000546,1.1950000000001637,1.2033333333334515,Sc2Se8P2,0.0,-0.746,1.171,-56.868,12,3,5.173,44.919,28.666666666666668,12.0,2.2916666666666665
3105,3286,0.4350000000001728,0.40000000000009095,0.43000000000006366,0.4216666666667758,Ta2Rh2S8,0.0,-0.849,0.463,-76.737,12,3,3.261,39.813,30.333333333333332,6.333333333333333,2.35
3106,3287,0.9349999999999454,0.8524999999999636,0.8550000000000182,0.880833333333309,Ta2Rh2Te8,0.0,-0.444,0.076,-64.89,12,3,4.005,47.833,54.333333333333336,13.0,2.03
3107,3288,0.9049999999999727,0.8849999999999909,0.834999999999809,0.8749999999999242,Zr2Se8Si2,0.094,-0.815,1.012,-63.241,12,3,6.951,38.354,31.666666666666668,12.0,2.2383333333333333
3108,3289,1.009999999999991,0.9975000000001728,0.9450000000001637,0.9841666666667758,Zr2Te8Si2,0.005,-0.487,0.574,-57.088,12,3,7.399,43.681,43.666666666666664,12.0,1.9383333333333335
3109,3290,0.8700000000000045,0.8700000000000045,0.8700000000000045,0.8700000000000045,Zr2Sn2S8,0.043,-0.954,1.072,-66.997,12,3,6.993,39.728,25.666666666666668,7.0,2.268333333333333
3110,3291,1.4299999999998363,1.3899999999998727,1.3899999999998727,1.4033333333331939,Zr2Sn2Se8,0.012,-0.851,0.887,-60.991,12,3,7.193,42.275,37.666666666666664,13.666666666666666,2.248333333333333
3111,3292,1.6549999999999727,1.6549999999999727,1.6549999999999727,1.6549999999999727,Zr2Sn2Te8,0.012,-0.551,0.498,-55.173,12,3,7.609,47.169,49.666666666666664,13.666666666666666,1.9483333333333335
3112,3293,5.024999999999977,5.024999999999977,5.024999999999977,5.024999999999977,Bi2I4GeSe2,0.007,-0.411,0.763,-30.444,9,4,3.842,48.057,53.111111111111114,16.0,2.421111111111111
3113,3294,0.5074999999999363,0.3524999999999636,0.3624999999999545,0.4074999999999515,Zr2Te8Ti2,0.118,-0.68,0.117,-61.981,12,3,3.714,50.893,45.0,12.0,1.8783333333333332
3114,3295,0.21500000000003183,0.19249999999999545,0.15499999999997272,0.1875,W2V2S8,0.014,-0.862,0.0,-82.992,12,3,3.054,35.349,26.833333333333332,5.833333333333333,2.3850000000000002
3115,3296,0.5775000000001,0.49500000000011823,0.5800000000001546,0.5508333333334576,W2V2Se8,0.024,-0.627,0.0,-75.404,12,3,3.284,38.443,38.833333333333336,12.5,2.3649999999999998
3116,3297,0.650000000000091,0.525000000000091,0.5699999999999363,0.5816666666667061,W2Te8V2,0.045,-0.184,0.0,-67.87,12,3,3.592,44.173,50.833333333333336,12.5,2.065
3117,3298,1.7524999999998272,1.7524999999998272,1.7524999999998272,1.7524999999998272,W2Zn2O8,0.021,-1.98,3.37,-90.088,12,3,4.45,23.311,22.666666666666668,7.0,2.9616666666666664
3118,3299,0.7625000000000455,0.7625000000000455,0.7625000000000455,0.7625000000000455,I4KAlO12,0.031,-0.683,3.107,-84.661,18,4,6.917,37.955,18.88888888888889,8.0,3.0194444444444444
3119,3300,1.1875,1.1875,1.1875,1.1875,Au2C4O8F4,0.025,-1.192,0.0,-111.936,18,4,1.932,71.373,15.666666666666666,6.333333333333333,3.2622222222222224
3120,3301,0.7174999999999727,0.7174999999999727,0.7174999999999727,0.7174999999999727,I4AlLiO12,0.029,-0.685,2.704,-85.364,18,4,6.924,32.874,18.0,8.0,3.0283333333333338
3121,3302,0.7174999999999727,0.7174999999999727,0.7174999999999727,0.7174999999999727,I4NaAlO12,0.029,-0.676,2.813,-84.623,18,4,6.833,34.541,18.444444444444443,8.0,3.0255555555555556
3122,3303,61.9,61.9,61.9,61.9,Ca2Br4O4H8,0.0,-1.429,4.906,-83.183,18,4,3.378,49.029,12.222222222222221,5.777777777777778,2.511111111111111
3123,3304,61.9,61.9,61.9,61.9,Ca2Br4S4H8,0.0,-0.82,4.708,-68.033,18,4,4.989,52.325,14.0,5.777777777777778,2.3200000000000003
3124,3305,61.9,61.9,61.9,61.9,Ca2Cl4O4H8,0.006,-1.534,5.714,-85.86,18,4,3.408,45.0,8.222222222222221,3.5555555555555554,2.5555555555555554
3125,3306,61.9,61.9,61.9,61.9,Ca2S4Cl4H8,0.009,-0.922,5.219,-70.673,18,4,5.024,47.904,10.0,3.5555555555555554,2.3644444444444446
3126,3307,61.9,61.9,61.9,61.9,Ca2O4F4H8,0.064,-2.014,6.025,-93.712,18,4,3.626,31.981,6.444444444444445,3.5555555555555554,2.7377777777777776
3127,3308,61.9,61.9,61.9,61.9,Ca2S4F4H8,0.073,-1.396,5.072,-78.413,18,4,5.191,34.11,8.222222222222221,3.5555555555555554,2.546666666666667
3128,3309,61.9,61.9,61.9,61.9,I4Ca2O4H8,0.0,-1.292,4.191,-80.295,18,4,3.355,54.696,16.22222222222222,5.777777777777778,2.4444444444444446
3129,3310,0.7450000000001182,0.7450000000001182,0.7450000000001182,0.7450000000001182,I4KGaO12,0.026,-0.526,2.984,-80.999,18,4,6.915,38.459,19.88888888888889,8.555555555555555,3.030555555555556
3130,3311,61.9,61.9,61.9,61.9,I4Ca2S4H8,0.0,-0.685,3.93,-65.181,18,4,4.929,59.132,18.0,5.777777777777778,2.2533333333333334
3131,3312,0.7074999999999818,0.7074999999999818,0.7074999999999818,0.7074999999999818,I4GaLiO12,0.02,-0.532,2.69,-81.777,18,4,6.939,33.342,19.0,8.555555555555555,3.0394444444444444
3132,3313,0.6825000000001182,0.6825000000001182,0.6825000000001182,0.6825000000001182,I4GaNaO12,0.019,-0.522,2.731,-81.02,18,4,6.842,35.107,19.444444444444443,8.555555555555555,3.036666666666667
3133,3314,0.8350000000000364,0.8524999999999636,0.8700000000001182,0.8525000000000394,InI4LiO12,0.0,-0.548,2.788,-81.915,18,4,7.195,32.409,20.0,8.555555555555555,3.037777777777778
3134,3315,61.9,61.9,61.9,61.9,Sr2Br4O4H8,0.01,-1.444,4.809,-82.768,18,4,3.491,53.085,14.222222222222221,5.777777777777778,2.5055555555555555
3135,3316,61.9,61.9,61.9,61.9,Sr2Br4S4H8,0.003,-0.842,4.689,-67.746,18,4,5.231,56.124,16.0,5.777777777777778,2.3144444444444447