,ind,max_valorX,max_valorY,max_valorZ,media,formula,Ehull,HF,Gap,Energy,natoms,nspecies,thickness,uc_area,average_atomic_number,average_valence_number,average_electronegativity
2642,2814,1.1700000000000728,1.1075000000000728,1.1075000000000728,1.128333333333406,Ta2Co2Se6,0.012,-0.64,0.0,-63.39,10,3,3.932,34.02,40.4,12.4,2.206
2643,2815,1.4375,1.3049999999998363,1.3049999999998363,1.3491666666665576,Ta2Te6Co2,0.036,-0.294,0.0,-58.26,10,3,4.423,37.317,51.2,12.4,1.936
2644,2816,1.5774999999999864,1.5774999999999864,1.5774999999999864,1.5774999999999864,Sc2Cl2N,0.0,-2.028,0.0,-31.38,5,3,5.745,9.788,16.6,5.0,2.4160000000000004
2645,2817,0.32999999999992724,0.4824999999999591,0.32999999999992724,0.3808333333332712,Te2I2Al2,0.101,-0.468,0.389,-19.651,6,3,6.198,22.596,39.333333333333336,12.0,2.1233333333333335
2646,2818,0.42249999999989996,0.20249999999998636,0.31749999999999545,0.31416666666662724,Cr2Ge2S6,0.034,-0.491,0.775,-57.23,10,3,3.068,31.729,20.8,7.6,2.282
2647,2819,1.1000000000000227,0.9350000000000591,1.0300000000000864,1.0216666666667227,Cr2Ge2Se6,0.0,-0.421,0.703,-52.958,10,3,3.256,35.096,31.6,13.6,2.2640000000000002
2648,2821,1.615000000000009,1.615000000000009,1.615000000000009,1.615000000000009,Te6Cr2Ge2,0.002,-0.184,0.125,-48.919,10,3,3.444,41.167,42.4,13.6,1.9940000000000002
2649,2822,0.4350000000000023,0.4350000000000023,0.4625000000000341,0.44416666666667953,Zr2Cl2N,0.0,-1.772,0.0,-35.589,5,3,5.812,10.173,24.2,5.4,2.404
2650,2823,2.8125,2.8125,2.8125,2.8125,Cr2NF2,0.156,-1.504,0.0,-37.863,5,3,4.643,7.878,14.6,6.2,2.864
2651,2824,0.9974999999999454,1.1274999999999409,1.2999999999999545,1.1416666666666135,Cr2P2S6,0.05,-0.43,0.622,-58.311,10,3,2.995,31.839,17.4,5.8,2.318
2652,2825,0.4550000000000409,0.8899999999999864,1.392500000000041,0.9125000000000227,Cr2Se6P2,0.013,-0.312,0.431,-53.563,10,3,3.092,35.446,28.2,11.8,2.3
2653,2826,1.4225000000001273,1.4800000000000182,1.427500000000009,1.4433333333333849,Sb2Cr2O6,0.0,-1.665,1.345,-75.022,10,3,4.075,22.384,19.8,7.8,2.806
2654,2827,0.6299999999999955,0.4900000000000091,0.7199999999999136,0.6133333333333061,Sb2Cr2Se6,0.093,-0.334,0.529,-51.868,10,3,3.748,37.671,35.4,13.8,2.272
2655,2828,0.47250000000008185,0.3650000000000091,0.7375000000000682,0.5250000000000531,Sb2Te6Cr2,0.083,-0.103,0.007,-47.891,10,3,3.898,43.807,46.2,13.8,2.0020000000000002
2656,2829,1.7174999999999727,1.7174999999999727,1.7174999999999727,1.7174999999999727,Mn2NF2,0.144,-1.349,0.0,-37.704,5,3,4.645,8.03,15.0,6.6,2.8200000000000003
2657,2830,61.9,61.9,61.9,61.9,Cr2Si2S6,0.047,-0.633,1.022,-60.413,10,3,3.087,30.605,17.2,5.6,2.2600000000000002
2658,2831,1.009999999999991,0.7799999999999727,0.9175000000000182,0.902499999999994,Cr2Se6Si2,0.0,-0.499,0.916,-55.503,10,3,3.265,34.072,28.0,11.6,2.242
2659,2832,2.375,2.375,2.375,2.375,Sc2NF2,0.016,-2.984,0.0,-35.766,5,3,4.845,8.773,13.4,5.0,2.7439999999999998
2660,2833,1.0725000000001046,0.8775000000000546,0.9600000000000364,0.9700000000000651,Te6Cr2Si2,0.002,-0.202,0.272,-50.861,10,3,3.446,40.272,38.8,11.6,1.9720000000000002
2661,2834,1.8550000000000182,1.8550000000000182,1.8550000000000182,1.8550000000000182,Ti2NF2,0.0,-2.562,0.0,-37.714,5,3,4.673,8.043,13.8,5.4,2.816
2662,2835,2.449999999999932,2.449999999999932,2.449999999999932,2.449999999999932,Sn2Te6Cr2,0.078,-0.161,0.086,-47.773,10,3,3.474,43.364,46.0,13.6,1.9840000000000004
2663,2837,2.4074999999999136,2.4074999999999136,2.4074999999999136,2.4074999999999136,Zr2NF2,0.082,-2.592,0.0,-39.29,5,3,4.994,9.286,21.0,5.4,2.732
2664,2838,0.19499999999993634,0.25749999999993634,0.19499999999993634,0.21583333333326968,Cs2N2O6,0.0,-1.067,3.249,-59.784,10,3,4.787,29.478,17.2,4.8,2.83
2665,2839,0.9574999999999818,1.0674999999998818,1.5699999999999363,1.1983333333332666,Fe2Cu2Cl6,0.184,-0.442,0.856,-40.564,10,3,2.634,32.04,21.2,8.0,2.6420000000000003
2666,2840,0.35999999999989996,0.3949999999999818,0.27749999999991815,0.34416666666659995,I6Fe2Cu2,0.141,0.003,0.754,-34.281,10,3,3.001,41.386,42.8,14.0,2.342
2667,2841,2.8524999999999636,2.8524999999999636,2.8524999999999636,2.8524999999999636,Cu2Ge2S6,0.061,-0.251,0.0,-43.366,10,3,4.638,44.828,21.8,8.6,2.33
2668,2842,0.3650000000000091,0.3650000000000091,0.3650000000000091,0.3650000000000091,Hg2Cu2Br6,0.015,-0.425,0.737,-22.885,10,3,3.312,43.665,42.8,14.8,2.556
2669,2843,0.6224999999999454,0.6224999999999454,0.6224999999999454,0.6224999999999454,Hg2Cu2Cl6,0.006,-0.569,0.676,-25.524,10,3,3.089,39.913,32.0,8.8,2.676
2670,2844,0.3250000000000455,0.29750000000012733,0.21250000000009095,0.27833333333342125,Hg2I6Cu2,0.048,-0.238,0.658,-20.378,10,3,3.574,49.42,53.6,14.8,2.3760000000000003
2671,2845,1.6750000000000114,1.6750000000000114,2.1625000000000227,1.8375000000000152,Ti2NH2,0.077,-0.903,0.0,-32.894,5,3,4.302,7.697,10.6,3.0,2.104
2672,2846,6.529999999999973,6.529999999999973,6.529999999999973,6.529999999999973,Cu2Br6Mg2,0.018,-1.023,2.476,-30.326,10,3,3.156,39.881,29.2,12.8,2.418
2673,2847,0.29750000000001364,0.32999999999992724,0.20499999999992724,0.27749999999995606,I6Cu2Mg2,0.021,-0.695,2.339,-26.407,10,3,3.452,46.605,40.0,12.8,2.2380000000000004
2674,2848,0.44000000000005457,0.37999999999988177,0.3450000000000273,0.3883333333333212,I6Mn2Cu2,0.014,-0.304,0.947,-38.693,10,3,3.405,45.946,42.6,13.8,2.2860000000000005
2675,2849,3.052500000000009,3.052500000000009,3.052500000000009,3.052500000000009,Ni2Cu2Br6,0.007,-0.359,0.478,-34.943,10,3,2.965,37.433,32.4,14.4,2.5379999999999994
2676,2850,61.9,61.9,61.9,61.9,Hf2S2N,0.056,-1.576,0.0,-39.402,5,3,5.681,10.068,36.6,5.0,2.16
2677,2851,61.9,61.9,61.9,61.9,Hf2Se2N,0.098,-1.388,0.0,-37.269,5,3,5.953,10.373,43.8,9.0,2.1479999999999997
2678,2852,0.47499999999990905,0.4874999999999545,0.5025000000000546,0.48833333333330603,Ni2Cu2Cl6,0.001,-0.563,0.614,-38.191,10,3,2.778,33.511,21.6,8.4,2.658
2679,2853,0.2875000000001364,0.37249999999994543,0.1974999999999909,0.2858333333333576,I6Ni2Cu2,0.011,-0.133,0.0,-32.047,10,3,3.192,43.0,43.2,14.4,2.358
2680,2854,2.5925000000000864,2.5925000000000864,2.5925000000000864,2.5925000000000864,Mn2NO2,0.12,-1.005,0.0,-43.058,5,3,4.307,7.177,14.6,6.2,2.604
2681,2855,0.5349999999999682,0.5349999999999682,0.9099999999999682,0.6599999999999682,Mn2S2N,0.051,-0.357,0.0,-37.727,5,3,5.102,8.268,17.8,6.2,2.2600000000000002
2682,2856,2.2625000000000455,2.2625000000000455,2.2625000000000455,2.2625000000000455,Pb2Cu2Br6,0.01,-0.691,1.283,-31.286,10,3,3.512,47.94,43.2,15.2,2.622
2683,2857,3.042500000000018,3.035000000000082,3.035000000000082,3.0375000000000605,Pb2Cu2Cl6,0.011,-0.876,1.34,-34.343,10,3,3.227,44.482,32.4,9.2,2.742
2684,2858,1.9075000000000273,1.8975000000000364,1.8975000000000364,1.9008333333333667,Pb2I6Cu2,0.021,-0.461,1.456,-28.347,10,3,3.835,54.449,54.0,15.2,2.442
2685,2859,0.6599999999998545,0.662499999999909,0.6549999999999727,0.6591666666665787,Pd2Cu2Br6,0.077,-0.276,0.0,-27.259,10,3,3.097,39.829,36.0,14.4,2.5959999999999996
2686,2860,0.22749999999996362,0.36749999999995,0.7574999999999932,0.4508333333333023,Nb2S2N,0.059,-1.119,0.0,-42.755,5,3,5.487,9.419,24.2,5.4,2.28
2687,2861,0.6800000000000068,0.75,0.8874999999999886,0.7724999999999985,Nb2Se2N,0.042,-0.973,0.0,-40.835,5,3,5.773,9.691,31.4,9.4,2.268
2688,2862,0.7624999999999886,0.5625,0.8974999999999795,0.7408333333333227,Nb2Te2N,0.076,-0.687,0.0,-38.851,5,3,6.228,10.085,38.6,9.4,2.088
2689,2863,5.1375000000000455,5.1375000000000455,5.1375000000000455,5.1375000000000455,Pd2I6Cu2,0.088,-0.131,0.0,-25.17,10,3,3.286,45.066,46.8,14.4,2.416
2690,2864,4.560000000000059,4.560000000000059,4.560000000000059,4.560000000000059,Sb2Cu2S6,0.048,-0.179,0.273,-42.426,10,3,3.065,34.83,25.6,8.8,2.338
2691,2865,0.2925000000000182,0.47500000000002274,0.8224999999999909,0.5300000000000106,Ta2S2N,0.067,-1.08,0.0,-41.541,5,3,5.453,9.505,37.0,5.4,2.2399999999999998
2692,2866,0.30000000000001137,0.36250000000001137,0.29000000000002046,0.3175000000000144,Ti2S2N,0.019,-1.437,0.0,-37.071,5,3,5.439,8.757,16.6,5.0,2.2560000000000002
2693,2867,0.35000000000002274,0.3550000000000182,0.6974999999999909,0.46750000000001063,V2S2N,0.047,-0.942,0.0,-38.268,5,3,5.247,8.214,17.0,5.4,2.2920000000000003
2694,2868,1.5499999999999545,1.5,1.5,1.5166666666666515,Te2Cu2S6,0.114,0.029,0.0,-37.939,10,3,3.19,35.458,25.8,9.0,2.348
2695,2869,0.2400000000000091,0.25499999999999545,0.23750000000001137,0.24416666666667197,Zr2S2N,0.062,-1.6,0.0,-39.314,5,3,5.723,10.205,23.8,5.0,2.1719999999999997
2696,2870,0.8625000000000114,0.9050000000000296,0.9550000000000409,0.9075000000000273,Ta2Se2N,0.092,-0.9,0.0,-39.452,5,3,5.706,9.858,44.2,9.4,2.228
2697,2871,0.46750000000002956,0.4425000000000523,0.32250000000004775,0.4108333333333765,Ti2Se2N,0.0,-1.29,0.0,-35.148,5,3,5.714,9.061,23.8,9.0,2.2439999999999998
2698,2872,0.777499999999975,0.777499999999975,0.902499999999975,0.8191666666666416,V2Se2N,0.048,-0.836,0.0,-36.547,5,3,5.518,8.521,24.2,9.4,2.28
2699,2873,1.0425000000000182,0.9100000000000819,0.9100000000000819,0.9541666666667273,Nb2Fe2Se6,0.02,-0.625,0.0,-65.878,10,3,4.048,33.324,33.8,12.2,2.216
2700,2874,1.459999999999809,1.0824999999999818,1.1049999999997908,1.2158333333331939,Nb2Te6Fe2,0.018,-0.321,0.0,-61.171,10,3,4.563,35.888,44.6,12.2,1.9460000000000002
2701,2875,0.34000000000003183,0.3050000000000068,0.2674999999999841,0.30416666666667425,Zr2Se2N,0.094,-1.437,0.0,-37.308,5,3,6.013,10.473,31.0,9.0,2.16
2702,2876,0.6199999999998909,0.23749999999995453,0.4099999999998545,0.42249999999989996,Fe2Se6P2,0.147,-0.121,0.0,-50.919,10,3,3.287,33.956,28.6,12.2,2.334
2703,2877,0.8525000000000205,0.722500000000025,0.5500000000000114,0.7083333333333522,Te2Ti2N,0.0,-1.003,0.0,-33.158,5,3,6.211,9.48,31.0,9.0,2.064
2704,2878,1.0625,0.9524999999999864,0.9524999999999864,0.9891666666666575,Ta2Fe2Se6,0.02,-0.613,0.0,-64.743,10,3,4.056,33.497,40.2,12.2,2.196
2705,2879,1.4700000000000273,1.1224999999999454,1.1324999999999363,1.2416666666666363,Ta2Te6Fe2,0.024,-0.276,0.0,-59.706,10,3,4.575,36.005,51.0,12.2,1.9260000000000002
2706,2880,0.32749999999998636,0.32749999999998636,0.5349999999999682,0.39666666666664696,Ga2Ge2S6,0.082,-0.409,1.551,-43.4,10,3,3.198,32.702,22.2,9.0,2.3120000000000003
2707,2881,0.4599999999999227,0.4599999999999227,0.5899999999999181,0.5033333333332545,Ga2Ge2Se6,0.056,-0.367,1.009,-39.403,10,3,3.378,36.345,33.0,15.0,2.2939999999999996
2708,2882,0.7049999999999272,0.7149999999999181,0.7049999999999272,0.7083333333332575,Te6Ga2Ge2,0.074,-0.132,0.338,-35.385,10,3,3.618,42.682,43.8,15.0,2.024
2709,2883,0.2624999999999318,0.3349999999999227,0.31999999999993634,0.3058333333332636,In2Ga2O6,0.056,-1.66,2.183,-58.675,10,3,5.719,17.44,20.8,8.8,2.782
2710,2884,0.4599999999999227,0.4599999999999227,0.4599999999999227,0.4599999999999227,In2Ga2S6,0.003,-0.638,1.981,-42.183,10,3,7.218,23.839,25.6,8.8,2.266
2711,2885,0.017500000000040927,0.017500000000040927,0.017500000000040927,0.017500000000040927,NiO2H2,0.038,-0.844,1.078,-28.364,5,3,3.937,8.744,9.2,4.8,2.638
2712,2886,4.5750000000000455,4.5750000000000455,4.5750000000000455,4.5750000000000455,Sb2Ga2O6,0.0,-1.612,3.759,-61.48,10,3,4.086,22.685,21.2,9.2,2.836
2713,2887,1.2625000000000455,1.11749999999995,1.1449999999999818,1.1749999999999925,Ga2Se6Si2,0.062,-0.448,1.36,-41.985,10,3,3.378,35.305,29.4,13.0,2.272
2714,2888,0.9025000000000318,0.9025000000000318,0.9025000000000318,0.9025000000000318,Te6Ga2Si2,0.035,-0.153,0.317,-37.36,10,3,3.617,41.71,40.2,13.0,2.0020000000000002
2715,2889,0.24500000000000455,0.3300000000000409,0.3300000000000409,0.30166666666669545,Tl2Ga2O6,0.08,-1.188,1.047,-53.428,10,3,5.932,18.352,27.2,8.8,2.834
2716,2890,0.4075000000000273,0.4075000000000273,0.5650000000000546,0.4600000000000364,In2Ge2S6,0.004,-0.445,1.641,-43.472,10,3,3.417,35.154,25.8,9.0,2.306
2717,2891,0.50750000000005,0.5025000000000546,0.6475000000000364,0.552500000000047,In2Ge2Se6,0.0,-0.419,1.202,-39.641,10,3,3.598,38.704,36.6,15.0,2.288
2718,2893,0.49500000000000455,0.49500000000000455,0.5149999999999864,0.5016666666666652,In2Te6Ge2,0.005,-0.194,0.65,-35.723,10,3,3.832,45.095,47.4,15.0,2.018
2719,2894,1.677500000000009,1.677500000000009,1.7325000000000728,1.6958333333333637,Ge2P2S6,0.028,-0.241,1.406,-46.636,10,3,3.365,35.173,19.0,7.4,2.388
2720,2895,1.419999999999959,1.5874999999999773,1.2474999999999454,1.418333333333294,Te6Ge2P2,0.067,0.029,0.819,-38.695,10,3,3.618,44.442,40.6,13.4,2.1
2721,2896,6.327499999999986,6.327499999999986,6.327499999999986,6.327499999999986,Sb2Te6Ge2,0.003,-0.097,0.536,-38.039,10,3,3.971,46.412,47.8,15.4,2.072
2722,2897,0.5674999999999955,0.3350000000000364,0.49500000000000455,0.4658333333333455,Te2Co2P,0.075,-0.298,0.0,-29.722,5,3,5.429,10.596,34.6,11.0,2.0300000000000002
2723,2898,61.9,61.9,61.9,61.9,Hf2PS2,0.027,-1.448,0.0,-35.775,5,3,5.983,11.607,38.2,5.0,1.9899999999999998
2724,2899,61.9,61.9,61.9,61.9,Hf2Se2P,0.003,-1.326,0.0,-33.974,5,3,6.233,12.001,45.4,9.0,1.9779999999999998
2725,2900,61.9,61.9,61.9,61.9,Hf2Te2P,0.0,-1.039,0.0,-31.98,5,3,6.581,12.654,52.6,9.0,1.798
2726,2901,0.49500000000000455,0.49500000000000455,0.49500000000000455,0.49500000000000455,Ni2PS2,0.076,-0.321,0.0,-29.62,5,3,4.616,10.277,20.6,7.4,2.234
2727,2902,0.3725000000000591,0.3725000000000591,0.44500000000005,0.39666666666672273,Ni2Se2P,0.011,-0.327,0.0,-28.458,5,3,4.913,10.668,27.8,11.4,2.222
2728,2903,0.6299999999999955,0.6299999999999955,0.6299999999999955,0.6299999999999955,Te2Ni2P,0.065,-0.262,0.0,-27.579,5,3,5.269,11.319,35.0,11.4,2.042
2729,2904,9.897500000000036,3.394999999999982,3.5125000000000455,5.601666666666688,Zn2Ge2O6,0.119,-1.491,2.745,-57.059,10,3,2.819,22.424,17.2,8.8,2.7960000000000003
2730,2905,61.9,61.9,61.9,61.9,Hf2Se6P2,0.196,-0.646,0.469,-53.101,10,3,3.5,40.663,37.8,11.4,2.2279999999999998
2731,2906,0.21750000000002956,0.2300000000000182,0.3650000000000091,0.2708333333333523,Ti2PS2,0.028,-1.236,0.0,-33.082,5,3,5.765,10.351,18.2,5.0,2.086
2732,2907,0.8075000000000045,0.8075000000000045,0.8075000000000045,0.8075000000000045,Zr2PS2,0.022,-1.501,0.0,-35.832,5,3,6.019,11.773,25.4,5.0,2.002
2733,2908,0.6299999999999955,0.5799999999999841,0.7574999999999932,0.6558333333333243,Ti2Se2P,0.006,-1.151,0.0,-31.466,5,3,5.994,10.759,25.4,9.0,2.074
2734,2909,1.169999999999959,1.169999999999959,1.169999999999959,1.169999999999959,Zr2Se2P,0.0,-1.396,0.0,-34.115,5,3,6.286,12.136,32.6,9.0,1.9899999999999998
2735,2910,0.5149999999999864,0.36250000000001137,0.47249999999996817,0.44999999999998863,Te2Ti2P,0.0,-0.925,0.0,-29.779,5,3,6.321,11.468,32.6,9.0,1.8940000000000001
2736,2911,1.420000000000016,1.420000000000016,1.420000000000016,1.420000000000016,Zr2Te2P,0.002,-1.141,0.0,-32.284,5,3,6.668,12.729,39.8,9.0,1.81
2737,2912,0.27749999999991815,1.2474999999999454,2.7674999999999272,1.4308333333332637,Hg2Br6Li2,0.065,-0.879,2.19,-23.852,10,3,3.536,43.879,37.6,12.8,2.372
2738,2913,5.467499999999973,5.467499999999973,5.467499999999973,5.467499999999973,Hg2Br6Na2,0.037,-0.923,2.291,-23.127,10,3,3.607,48.127,39.2,12.8,2.3619999999999997
2739,2914,0.4500000000000455,0.3374999999998636,0.32749999999987267,0.3716666666665939,Hg2I6Na2,0.025,-0.707,1.847,-20.328,10,3,4.014,54.476,50.0,12.8,2.182
2740,2915,0.5395000000000039,0.5395000000000039,0.5395000000000039,0.5395000000000039,PdLi2H2,0.064,-0.402,0.0,-16.257,5,3,3.389,9.557,10.8,2.8,1.7120000000000002
2741,2916,0.5062499999999943,0.5062499999999943,0.5062499999999943,0.5062499999999943,PdNa2H2,0.044,-0.257,0.0,-14.37,5,3,3.403,12.462,14.0,2.8,1.6920000000000002
2742,2917,0.4472499999999968,0.4472499999999968,0.4472499999999968,0.4472499999999968,PtLi2H2,0.046,-0.48,0.0,-19.185,5,3,3.351,9.847,17.2,2.8,1.7280000000000002
2743,2918,0.42499999999998295,0.42499999999998295,0.42499999999998295,0.42499999999998295,PtNa2H2,0.046,-0.3,0.0,-17.118,5,3,3.36,12.84,20.4,2.8,1.7079999999999997
2744,2919,1.4025000000001455,1.3275000000001,1.3275000000001,1.3525000000001153,Hg2Sn2Se6,0.041,-0.273,0.397,-33.513,10,3,3.364,41.64,46.4,14.8,2.322
2745,2920,2.527500000000032,2.527500000000032,2.527500000000032,2.527500000000032,Te2As2S,0.02,-0.046,0.709,-20.046,5,3,6.431,13.343,37.2,13.6,2.228
2746,2921,2.0924999999999727,2.0924999999999727,2.0924999999999727,2.0924999999999727,In2P2S6,0.072,-0.318,0.839,-43.908,10,3,3.517,37.359,22.4,7.2,2.342
2747,2922,3.167500000000018,3.167500000000018,3.167500000000018,3.167500000000018,Bi2Se2S,0.0,-0.391,0.354,-22.346,5,3,6.854,14.786,50.0,13.6,2.3440000000000003
2748,2923,4.699999999999989,3.1850000000000023,3.1850000000000023,3.6899999999999977,Bi2Te2S,0.003,-0.289,0.158,-21.279,5,3,7.087,15.902,57.2,13.6,2.164
2749,2924,4.177500000000009,4.177500000000009,4.177500000000009,4.177500000000009,In2Sb2O6,0.025,-1.464,3.123,-59.729,10,3,4.196,25.668,24.8,9.2,2.83
2750,2925,4.1924999999999955,4.1924999999999955,4.1924999999999955,4.1924999999999955,Pb2Br2S,0.006,-0.8,1.111,-18.763,5,3,6.892,16.362,50.0,13.6,2.632
2751,2926,0.7675000000000409,0.7675000000000409,0.9724999999999682,0.83583333333335,In2Si2S6,0.031,-0.593,1.848,-46.724,10,3,3.396,34.093,22.2,7.0,2.284
2752,2928,0.8724999999999454,0.8724999999999454,1.052500000000009,0.9324999999999667,In2Se6Si2,0.0,-0.502,1.41,-42.236,10,3,3.58,37.689,33.0,13.0,2.266
2753,2929,0.9499999999999318,0.9499999999999318,0.9499999999999318,0.9499999999999318,Hg2I2S,0.035,-0.269,2.264,-10.149,5,3,7.1,19.334,56.4,12.8,2.38
2754,2930,0.8125,0.8125,0.8125,0.8125,I2Mn2S,0.079,-0.368,0.037,-28.308,5,3,6.33,13.478,34.4,10.8,2.2
2755,2931,3.577500000000043,3.577500000000043,3.577500000000043,3.577500000000043,Pb2I2S,0.048,-0.594,0.929,-17.524,5,3,7.576,16.562,57.2,13.6,2.512
2756,2932,0.8724999999999454,0.8724999999999454,0.8724999999999454,0.8724999999999454,In2Te6Si2,0.005,-0.215,0.682,-37.7,10,3,3.815,44.189,43.8,13.0,1.996
2757,2933,1.2199999999999704,1.2524999999999977,1.24249999999995,1.238333333333306,Ta2Te2S,0.088,-0.533,0.388,-32.788,5,3,4.334,16.536,53.2,9.6,1.9560000000000002
2758,2934,0.6374999999999318,0.80499999999995,0.99249999999995,0.8116666666666106,Ir2Sb2S6,0.098,-0.294,0.275,-54.774,10,3,2.897,35.696,35.2,8.4,2.398
2759,2935,0.29749999999989996,0.5625,0.32749999999987267,0.39583333333325754,Ir2Sb2Se6,0.058,-0.272,0.292,-50.983,10,3,2.923,39.159,46.0,14.4,2.38
2760,2936,0.34750000000008185,0.4650000000001455,0.33750000000009095,0.38333333333343944,Ir2Sb2Te6,0.061,-0.194,0.325,-48.531,10,3,3.134,44.554,56.8,14.4,2.1100000000000003
2761,2937,0.35750000000007276,0.3000000000000682,0.3250000000000455,0.32750000000006213,SbTe2Co2,0.029,-0.175,0.0,-28.147,5,3,5.327,12.458,41.8,13.0,2.002
2762,2938,0.99249999999995,1.1399999999999864,1.0199999999999818,1.050833333333306,K2N2O6,0.008,-1.059,3.166,-60.475,10,3,4.588,24.026,10.0,4.8,2.836
2763,2939,1.625,1.517500000000041,2.8350000000000364,1.9925000000000257,Br6Mg2Li2,0.041,-1.506,4.541,-31.579,10,3,3.495,40.937,24.0,10.8,2.234
2764,2940,3.25,3.1649999999999636,3.1649999999999636,3.193333333333309,Mg2Cl6Li2,0.034,-1.832,5.719,-36.048,10,3,3.425,36.106,13.2,4.8,2.354
2765,2941,1.7625000000000455,2.6025000000000773,4.837500000000091,3.0675000000000714,I6Mg2Li2,0.053,-1.097,3.565,-26.856,10,3,3.599,48.58,34.8,10.8,2.0540000000000003
2766,2942,0.5,0.9850000000000136,1.615000000000009,1.033333333333341,Mn2Br6Li2,0.04,-1.056,2.03,-43.284,10,3,3.468,41.096,26.6,11.8,2.282
2767,2943,0.29750000000001364,0.8050000000000637,1.6100000000000136,0.904166666666697,Mn2Cl6Li2,0.033,-1.337,2.219,-47.298,10,3,3.421,36.665,15.8,5.8,2.402
2768,2944,61.9,61.9,61.9,61.9,Hf2SbTe2,0.068,-0.652,0.0,-29.086,5,3,6.905,14.07,59.8,11.0,1.7700000000000002
2769,2945,0.3974999999999227,0.7400000000000091,0.6825000000000045,0.6066666666666455,I6Mn2Li2,0.054,-0.699,1.623,-39.072,10,3,3.58,48.115,37.4,11.8,2.1020000000000003
2770,2946,0.2725000000000364,0.25250000000005457,0.4550000000000409,0.3266666666667106,SbNi2Se2,0.02,-0.283,0.0,-27.28,5,3,4.878,12.344,35.0,13.4,2.194
2771,2947,0.4800000000000182,0.4800000000000182,0.4800000000000182,0.4800000000000182,SbTe2Ni2,0.015,-0.274,0.0,-26.68,5,3,5.147,13.164,42.2,13.4,2.0140000000000002