,ind,max_valorX,max_valorY,max_valorZ,media,formula,Ehull,HF,Gap,Energy,natoms,nspecies,thickness,uc_area,average_atomic_number,average_valence_number,average_electronegativity
2036,2154,0.08250000000003865,0.0875000000000341,0.12000000000000455,0.09666666666669244,NiO2,0.0,-0.709,1.281,-19.622,3,2,1.899,6.983,14.666666666666666,7.333333333333333,2.9299999999999997
2037,2155,0.3100000000000023,0.3100000000000023,0.2950000000000159,0.3050000000000068,NiS2,0.049,-0.252,0.583,-16.158,3,2,2.351,9.74,20.0,7.333333333333333,2.356666666666667
2038,2156,0.3050000000000068,0.42250000000001364,0.33250000000003865,0.35333333333335304,NiSe2,0.0,-0.258,0.06,-14.987,3,2,2.491,10.863,32.0,14.0,2.3366666666666664
2039,2157,0.30750000000000455,0.23250000000001592,0.2950000000000159,0.2783333333333455,NiSe2,0.18,-0.078,0.0,-14.448,3,2,2.639,10.649,32.0,14.0,2.3366666666666664
2040,2158,0.2899999999999636,0.3924999999999841,0.3299999999999841,0.33749999999997726,Te2Ni,0.067,-0.174,0.0,-14.177,3,2,2.713,12.397,44.0,14.0,2.0366666666666666
2041,2159,0.27249999999997954,0.1875,0.277499999999975,0.24583333333331817,Te2Ni,0.164,-0.076,0.0,-13.886,3,2,2.922,11.95,44.0,14.0,2.0366666666666666
2042,2160,0.39074999999999704,0.3044999999999902,0.2392499999999984,0.3114999999999952,Tl2O,0.029,-0.557,0.995,-11.79,3,2,3.191,10.69,56.666666666666664,10.666666666666666,2.5066666666666664
2043,2161,61.9,61.9,61.9,61.9,Ba4Mn2Br2S6,0.005,-1.61,0.0,-76.931,14,4,15.124,21.629,31.428571428571427,6.571428571428571,2.0042857142857144
2044,2162,61.9,61.9,61.9,61.9,Sr4Mn2Br2O6,0.0,-2.334,0.0,-92.715,14,4,13.049,15.386,22.857142857142858,6.571428571428571,2.39
2045,2163,1.8099999999999454,1.8099999999999454,1.8099999999999454,1.8099999999999454,Sr4Mn2Br2S6,0.066,-1.522,0.0,-75.07,14,4,14.649,20.476,26.285714285714285,6.571428571428571,2.0214285714285714
2046,2164,1.7250000000001364,1.7250000000001364,1.7250000000001364,1.7250000000001364,Ba4Ni2Br2S6,0.09,-1.443,0.0,-69.645,14,4,15.554,20.237,31.857142857142858,7.0,2.0557142857142856
2047,2165,0.7525000000000546,0.6150000000000091,0.5525000000000091,0.6400000000000242,Sr4Ni2Br2O6,0.0,-1.983,0.0,-82.867,14,4,13.05,14.986,23.285714285714285,7.0,2.4414285714285713
2048,2166,0.3975000000000364,0.3849999999999909,0.21500000000003183,0.3325000000000197,Se2P,0.082,0.026,0.0,-12.251,3,2,2.967,10.627,27.666666666666668,12.333333333333334,2.4299999999999997
2049,2167,61.9,61.9,61.9,61.9,Ba4Mn2S6Cl2,0.036,-1.653,0.0,-77.934,14,4,14.842,21.344,28.857142857142858,5.142857142857143,2.032857142857143
2050,2168,2.3449999999999704,2.3449999999999704,2.3449999999999704,2.3449999999999704,PbBr2,0.0,-0.965,2.004,-9.823,3,2,3.329,17.437,50.666666666666664,16.0,2.75
2051,2169,2.1299999999999955,2.1299999999999955,2.1299999999999955,2.1299999999999955,PbBr2,0.082,-0.883,2.275,-9.578,3,2,3.683,16.072,50.666666666666664,16.0,2.75
2052,2170,61.9,61.9,61.9,61.9,Sr4Mn2Cl2O6,0.0,-2.405,0.0,-94.11,14,4,12.638,15.204,20.285714285714285,5.142857142857143,2.4185714285714286
2053,2171,3.625,3.625,3.625,3.625,PbCl2,0.01,-1.168,2.367,-10.832,3,2,2.977,16.709,38.666666666666664,9.333333333333334,2.8833333333333333
2054,2172,3.3125,3.3125,3.3125,3.3125,PbCl2,0.105,-1.073,2.775,-10.549,3,2,3.401,15.132,38.666666666666664,9.333333333333334,2.8833333333333333
2055,2173,1.910000000000025,1.910000000000025,1.910000000000025,1.910000000000025,PbI2,0.0,-0.692,1.499,-8.793,3,2,3.735,18.807,62.666666666666664,16.0,2.5500000000000003
2056,2174,1.7074999999999818,1.7074999999999818,1.7074999999999818,1.7074999999999818,PbI2,0.078,-0.614,1.577,-8.559,3,2,4.062,17.556,62.666666666666664,16.0,2.5500000000000003
2057,2175,0.26000000000004775,0.30750000000000455,0.29750000000001364,0.2883333333333553,PbO2,0.094,-0.804,1.346,-16.418,3,2,2.117,10.024,32.666666666666664,8.666666666666666,3.0700000000000003
2058,2176,2.120000000000033,2.120000000000033,2.120000000000033,2.120000000000033,PbS2,0.191,-0.187,1.39,-12.477,3,2,2.15,19.352,38.0,8.666666666666666,2.4966666666666666
2059,2177,1.6200000000000045,1.6200000000000045,1.6200000000000045,1.6200000000000045,Ba4I2Mn2S6,0.0,-1.539,0.0,-75.72,14,4,15.65,22.003,34.0,6.571428571428571,1.9614285714285715
2060,2178,2.2124999999999773,2.2124999999999773,2.2124999999999773,2.2124999999999773,PbSe2,0.18,-0.209,1.027,-11.35,3,2,2.426,20.603,50.0,15.333333333333334,2.4766666666666666
2061,2179,61.9,61.9,61.9,61.9,Sr4I2Mn2O6,0.007,-2.223,0.0,-90.961,14,4,13.563,15.741,25.428571428571427,6.571428571428571,2.347142857142857
2062,2180,1.5425000000000182,1.5425000000000182,1.5425000000000182,1.5425000000000182,Sr4I2Mn2S6,0.037,-1.458,0.0,-73.967,14,4,15.09,20.851,28.857142857142858,6.571428571428571,1.9785714285714289
2063,2181,1.4574999999999818,1.4574999999999818,1.4574999999999818,1.4574999999999818,Ba4I2Ni2S6,0.078,-1.363,0.0,-68.312,14,4,16.103,20.644,34.42857142857143,7.0,2.012857142857143
2064,2182,0.6274999999999977,0.6274999999999977,0.6274999999999977,0.6274999999999977,PdBr2,0.148,-0.226,0.198,-7.668,3,2,2.907,13.199,38.666666666666664,14.666666666666666,2.706666666666667
2065,2183,0.7450000000001182,0.7450000000001182,0.7450000000001182,0.7450000000001182,Li2N2O6H4,0.07,-1.024,2.637,-78.867,14,4,5.632,20.225,5.142857142857143,3.7142857142857144,2.6771428571428575
2066,2184,0.9325000000000045,0.9325000000000045,0.9325000000000045,0.9325000000000045,PdCl2,0.166,-0.35,0.463,-8.439,3,2,2.719,12.058,26.666666666666668,8.0,2.84
2067,2185,0.007500000000163709,0.04250000000001819,0.02750000000014552,0.02583333333344247,Na2N2O6H4,0.066,-0.978,2.794,-77.059,14,4,6.524,22.604,6.285714285714286,3.7142857142857144,2.6700000000000004
2068,2186,61.9,61.9,61.9,61.9,Hf2AgIBr3S3,0.128,-0.983,0.2,-46.145,10,5,4.253,41.627,39.7,10.5,2.3810000000000002
2069,2187,4.727499999999964,4.727499999999964,4.727499999999964,4.727499999999964,Au2AgI3MnSe3,0.076,-0.165,0.149,-35.354,10,5,6.007,45.209,49.1,13.9,2.4189999999999996
2070,2188,1.4500000000000455,1.4500000000000455,1.4500000000000455,1.4500000000000455,PdF2,0.134,-1.151,0.714,-10.447,3,2,2.1,9.901,21.333333333333332,8.0,3.3866666666666667
2071,2189,0.9474999999999909,0.9474999999999909,0.9474999999999909,0.9474999999999909,PdO2,0.0,-0.399,1.379,-15.267,3,2,1.958,8.289,20.666666666666668,7.333333333333333,3.026666666666667
2072,2190,0.6075000000000159,0.6075000000000159,0.6075000000000159,0.6075000000000159,PdS2,0.062,-0.234,1.095,-12.679,3,2,1.471,15.076,26.0,7.333333333333333,2.4533333333333336
2073,2191,0.3125,0.3125,0.3125,0.3125,PdS2,0.101,-0.196,1.171,-12.563,3,2,2.49,10.935,26.0,7.333333333333333,2.4533333333333336
2074,2192,0.375,0.4075000000000273,0.37999999999999545,0.38750000000000756,PdSe2,0.026,-0.265,0.558,-11.58,3,2,2.626,12.08,38.0,14.0,2.433333333333333
2075,2193,0.4175000000000182,0.43250000000000455,0.4175000000000182,0.42250000000001364,PdTe2,0.086,-0.263,0.0,-11.018,3,2,2.757,13.986,50.0,14.0,2.1333333333333333
2076,2194,0.7475000000000023,0.7475000000000023,0.7475000000000023,0.7475000000000023,PtO2,0.006,-0.549,1.674,-18.25,3,2,1.886,8.581,31.333333333333332,7.333333333333333,3.0533333333333332
2077,2195,0.339999999999975,0.33749999999997726,0.33749999999997726,0.33833333333330984,PtS2,0.0,-0.394,1.688,-15.694,3,2,2.464,11.06,36.666666666666664,7.333333333333333,2.48
2078,2196,0.27249999999997954,0.3125,0.26499999999998636,0.28333333333332195,PtSe2,0.0,-0.413,1.167,-14.56,3,2,2.62,12.167,48.666666666666664,14.0,2.4599999999999995
2079,2197,0.32499999999998863,0.38999999999998636,0.339999999999975,0.35166666666665,PtTe2,0.027,-0.392,0.303,-13.94,3,2,2.774,13.966,60.666666666666664,14.0,2.16
2080,2198,0.1875,0.1875,0.1875,0.1875,RhH2,0.048,0.048,0.0,-13.652,3,2,1.975,6.378,15.666666666666666,3.6666666666666665,2.2266666666666666
2081,2199,0.4825000000000159,0.4749999999999659,0.4749999999999659,0.47749999999998255,RhI2,0.169,-0.109,0.0,-10.431,3,2,2.972,14.129,50.333333333333336,14.333333333333334,2.533333333333333
2082,2200,0.04099999999999682,0.18250000000000455,0.18250000000000455,0.1353333333333353,RhLi2,0.157,-0.018,0.0,-10.981,3,2,3.932,6.763,17.0,3.6666666666666665,1.4133333333333333
2083,2201,0.30750000000000455,0.347500000000025,0.2725000000000364,0.3091666666666886,RuBr2,0.187,-0.101,1.045,-12.937,3,2,2.634,12.377,38.0,14.0,2.706666666666667
2084,2202,0.277499999999975,0.3924999999999841,0.29249999999996135,0.3208333333333068,RuI2,0.102,0.037,1.022,-12.309,3,2,2.81,14.04,50.0,14.0,2.506666666666667
2085,2203,0.5272500000000093,0.5272500000000093,0.5272500000000093,0.5272500000000093,Tl2S,0.016,-0.336,1.443,-10.082,3,2,3.591,14.157,59.333333333333336,10.666666666666666,2.22
2086,2204,0.40500000000002956,0.472500000000025,0.4375,0.4383333333333515,SbS2,0.123,-0.107,0.0,-12.883,3,2,3.085,12.12,27.666666666666668,9.0,2.4033333333333333
2087,2205,2.4849999999996726,2.4849999999996726,2.4849999999996726,2.4849999999996726,Hg4Rb2Br6S2O6,0.034,-1.053,2.864,-74.833,20,5,11.387,40.134,34.2,10.0,2.66
2088,2206,2.949999999999818,2.949999999999818,2.949999999999818,2.949999999999818,Hg4Rb2S2Cl6O6,0.029,-1.123,3.315,-77.435,20,5,11.019,39.17,28.8,7.0,2.72
2089,2207,0.3050000000000068,0.3025000000000091,0.20999999999997954,0.27249999999999847,SbSe2,0.071,-0.148,0.0,-11.815,3,2,3.336,13.056,39.666666666666664,15.666666666666666,2.3833333333333333
2090,2208,61.9,61.9,61.9,61.9,Hf4I4S4,0.147,-1.134,0.0,-65.855,12,3,4.205,46.389,47.0,9.0,2.18
2091,2209,0.3725000000000023,0.27000000000003865,0.285000000000025,0.3091666666666886,SbTe2,0.108,0.004,0.0,-10.804,3,2,3.664,14.747,51.666666666666664,15.666666666666666,2.0833333333333335
2092,2210,1.7574999999999932,1.7574999999999932,1.7574999999999932,1.7574999999999932,ScBr2,0.0,-1.588,0.157,-12.592,3,2,3.501,11.82,30.333333333333332,12.333333333333334,2.4266666666666667
2093,2211,1.9424999999999955,1.9424999999999955,1.9424999999999955,1.9424999999999955,ScCl2,0.009,-1.934,0.107,-14.031,3,2,3.247,10.719,18.333333333333332,5.666666666666667,2.56
2094,2212,1.5774999999999864,1.5774999999999864,1.5774999999999864,1.5774999999999864,I2Sc,0.008,-1.138,0.106,-11.03,3,2,3.798,13.71,42.333333333333336,12.333333333333334,2.226666666666667
2095,2213,0.6649999999999636,0.8174999999999955,0.6024999999999636,0.6949999999999742,ScSe2,0.079,-1.173,0.0,-15.144,3,2,2.968,12.952,29.666666666666668,11.666666666666666,2.1533333333333333
2096,2214,0.2725000000000364,0.2725000000000364,0.2725000000000364,0.2725000000000364,ScSe2,0.126,-1.126,0.56,-15.005,3,2,2.933,13.481,29.666666666666668,11.666666666666666,2.1533333333333333
2097,2215,0.4500000000000455,0.4600000000000364,0.4450000000001637,0.45166666666674854,In4Te4I4,0.036,-0.415,0.875,-34.763,12,3,5.921,65.333,51.333333333333336,15.333333333333334,2.18
2098,2216,2.775000000000091,1.8700000000001182,2.4200000000000728,2.355000000000094,ITi5Cl2N3O,0.144,-1.596,0.069,-87.83,12,5,5.947,25.601,18.833333333333332,6.0,2.436666666666667
2099,2217,1.4324999999998909,1.4224999999999,1.4375,1.4308333333332637,Re2OsRhSe3S5,0.097,-0.384,0.0,-77.102,12,5,3.567,39.331,37.75,9.083333333333334,2.4025
2100,2218,1.5325000000000273,1.4175000000000182,1.4175000000000182,1.4558333333333546,Ti7SeBr3ClC2O6,0.072,-1.951,0.0,-145.054,20,6,7.018,41.233,18.5,7.3,2.5555
2101,2219,17.58528000000001,18.435879999999997,18.278279999999995,18.099813333333334,AgGaBr4Cl2,0.078,-0.525,0.444,-19.85,8,4,3.306,38.292,31.5,13.25,2.7375
2102,2220,0.7124999999999773,0.8174999999999955,0.7124999999999773,0.7474999999999833,SiS2,0.086,-0.584,1.695,-15.307,3,2,2.713,11.475,15.333333333333334,5.333333333333333,2.3533333333333335
2103,2221,0.33499999999997954,0.33499999999997954,0.33499999999997954,0.33499999999997954,SiS2,0.111,-0.56,1.383,-15.234,3,2,2.652,9.46,15.333333333333334,5.333333333333333,2.3533333333333335
2104,2222,0.535000000000025,0.6675000000000182,0.29000000000002046,0.4975000000000212,Se2Si,0.084,-0.367,1.123,-13.464,3,2,2.948,12.925,27.333333333333332,12.0,2.3333333333333335
2105,2223,0.3324999999999818,0.36000000000001364,0.3224999999999909,0.33833333333332877,Se2Si,0.116,-0.334,0.467,-13.367,3,2,2.879,10.663,27.333333333333332,12.0,2.3333333333333335
2106,2224,61.9,61.9,61.9,61.9,Hf2IBr4Cl,0.0,-1.289,0.387,-34.928,8,4,3.69,37.979,44.25,12.5,2.5325
2107,2225,1.777499999999975,1.777499999999975,1.777499999999975,1.777499999999975,SnI2,0.0,-0.539,1.837,-8.629,3,2,3.692,18.133,52.0,16.0,2.4266666666666667
2108,2226,1.5500000000000114,1.5500000000000114,1.5500000000000114,1.5500000000000114,SnI2,0.085,-0.454,1.926,-8.374,3,2,4.028,16.916,52.0,16.0,2.4266666666666667
2109,2227,0.29000000000002046,0.3149999999999977,0.2599999999999909,0.2883333333333364,SnO2,0.151,-1.548,2.683,-18.948,3,2,2.018,8.977,22.0,8.666666666666666,2.9466666666666668
2110,2228,0.7074999999999818,0.7099999999999227,0.7074999999999818,0.7083333333332954,MnGaBr4Cl2,0.012,-0.83,0.426,-29.171,8,4,2.99,36.072,28.75,12.75,2.69
2111,2229,0.3299999999999841,0.35000000000002274,0.34000000000003183,0.3400000000000129,SnS2,0.0,-0.402,1.587,-13.417,3,2,2.955,11.83,27.333333333333332,8.666666666666666,2.3733333333333335
2112,2230,0.5650000000000546,0.5650000000000546,0.5650000000000546,0.5650000000000546,SnS2,0.082,-0.319,1.438,-13.17,3,2,3.074,14.3,27.333333333333332,8.666666666666666,2.3733333333333335
2113,2231,0.35250000000002046,0.42250000000001364,0.375,0.3833333333333447,SnSe2,0.0,-0.347,0.762,-12.064,3,2,3.186,12.936,39.333333333333336,15.333333333333334,2.353333333333333
2114,2232,0.3875000000000455,0.4975000000000023,0.22000000000002728,0.3683333333333583,SnSe2,0.056,-0.291,0.86,-11.896,3,2,3.304,15.623,39.333333333333336,15.333333333333334,2.353333333333333
2115,2233,61.9,61.9,61.9,61.9,HfIrBr4Cl2,0.077,-0.953,0.696,-34.311,8,4,3.494,34.706,40.375,11.875,2.7075
2116,2234,0.277499999999975,0.39999999999997726,0.37999999999999545,0.35249999999998255,SnTe2,0.114,-0.071,0.0,-10.68,3,2,3.562,14.716,51.333333333333336,15.333333333333334,2.0533333333333332
2117,2235,0.25750000000005,0.25750000000005,0.25750000000005,0.25750000000005,SrBr2,0.017,-2.155,4.929,-11.31,3,2,3.131,18.421,36.0,12.0,2.29
2118,2236,0.26499999999998636,0.26499999999998636,0.26499999999998636,0.26499999999998636,SrBr2,0.14,-2.033,4.313,-10.943,3,2,3.606,16.681,36.0,12.0,2.29
2119,2237,0.3100000000000023,0.3100000000000023,0.3100000000000023,0.3100000000000023,SrCl2,0.046,-2.468,5.738,-12.649,3,2,2.793,17.248,24.0,5.333333333333333,2.4233333333333333
2120,2238,0.30750000000000455,0.30750000000000455,0.30750000000000455,0.30750000000000455,SrCl2,0.194,-2.32,4.944,-12.204,3,2,3.312,15.454,24.0,5.333333333333333,2.4233333333333333
2121,2239,1.1900000000000546,1.1800000000000637,1.1800000000000637,1.183333333333394,IrNiBr2Cl4,0.0,-0.486,0.0,-30.724,8,4,2.732,33.217,30.375,10.125,2.83375
2122,2240,1.9400000000000546,1.9400000000000546,1.9400000000000546,1.9400000000000546,IrRuCl4O2,0.023,-0.681,0.0,-41.579,8,4,3.199,26.566,25.625,7.125,2.9899999999999998
2123,2241,2.6124999999999545,2.769999999999982,2.67999999999995,2.6874999999999623,IrRuBr4S2,0.065,-0.317,0.035,-35.771,8,4,4.776,28.014,36.625,12.125,2.6750000000000003
2124,2242,0.2999999999999545,0.26499999999998636,0.24500000000000455,0.2699999999999818,SrI2,0.0,-1.742,3.984,-9.858,3,2,3.591,20.278,48.0,12.0,2.0900000000000003
2125,2243,0.2524999999999977,0.2300000000000182,0.2300000000000182,0.23750000000001137,SrI2,0.096,-1.646,3.418,-9.569,3,2,4.006,18.61,48.0,12.0,2.0900000000000003
2126,2244,0.9974999999999454,1.0,1.0125000000000455,1.0033333333333303,OsVBr4O2,0.036,-0.957,0.0,-43.96,8,4,3.525,27.477,31.875,11.625,2.81875
2127,2245,61.9,61.9,61.9,61.9,Hf2I4SeS,0.037,-1.094,1.889,-37.239,8,4,3.346,43.902,50.75,12.25,2.2962499999999997
2128,2246,2.369999999999891,2.369999999999891,2.369999999999891,2.369999999999891,Os2SeSCl4,0.066,-0.291,0.156,-39.414,8,4,2.777,33.852,33.75,8.25,2.77125
2129,2247,0.1775000000000091,0.26249999999998863,0.23750000000001137,0.22583333333333636,TaS2,0.0,-1.087,0.0,-21.235,3,2,3.132,9.666,35.0,5.666666666666667,2.22
2130,2248,0.13249999999999318,0.23749999999995453,0.16749999999996135,0.17916666666663636,TaS2,0.02,-1.067,0.0,-21.175,3,2,3.067,9.903,35.0,5.666666666666667,2.22
2131,2249,1.0824999999999818,1.044999999999959,1.0674999999999955,1.0649999999999789,Au2I4VS,0.086,-0.261,0.575,-26.86,8,4,3.812,45.624,51.125,12.625,2.49125
2132,2250,7.9375,7.9375,7.9375,7.9375,SnI4ZnCl2,0.094,-0.585,1.101,-19.401,8,4,3.455,42.403,40.75,13.5,2.57125
2133,2251,0.25,0.30000000000001137,0.22750000000002046,0.25916666666667726,TaSe2,0.023,-0.815,0.0,-19.226,3,2,3.305,10.626,47.0,12.333333333333334,2.1999999999999997
2134,2252,0.33499999999997954,0.3550000000000182,0.214999999999975,0.3016666666666576,TaTe2,0.049,-0.336,0.0,-17.235,3,2,3.65,11.801,59.0,12.333333333333334,1.9000000000000001
2135,2253,1.4950000000001182,1.4950000000001182,3.942500000000109,2.3108333333334485,Cd2S2O8H4,0.049,-1.181,3.846,-83.203,16,4,4.063,29.518,12.25,5.5,2.80375
2136,2254,0.15350000000000819,0.3564999999999827,0.26300000000000523,0.2576666666666654,Bi2Ti,0.133,-0.013,0.0,-16.078,3,2,4.662,9.715,62.666666666666664,11.333333333333334,1.86
2137,2255,0.1244999999999834,0.38374999999999204,0.28449999999998,0.26424999999998516,Bi2Ti,0.15,0.004,0.0,-16.028,3,2,4.711,9.627,62.666666666666664,11.333333333333334,1.86
2138,2256,0.7200000000000273,0.7150000000000318,0.7625000000000455,0.7325000000000349,TiBr2,0.033,-1.145,0.758,-13.294,3,2,3.388,10.44,30.666666666666668,12.666666666666666,2.486666666666667
2139,2257,10.55749999999989,10.55749999999989,10.55749999999989,10.55749999999989,Cd2Se2O8H4,0.0,-1.054,4.104,-79.975,16,4,4.208,30.5,14.5,6.75,2.8
2140,2258,0.8574999999999591,0.8574999999999591,0.8924999999999841,0.8691666666666341,TiCl2,0.007,-1.537,0.903,-14.871,3,2,3.172,9.312,18.666666666666668,6.0,2.62
2141,2259,0.3849999999999909,0.3849999999999909,0.3849999999999909,0.3849999999999909,K2Cl2O4H8,0.051,-1.265,5.09,-73.337,16,4,4.811,32.459,7.0,3.0,2.4575
2142,2260,0.24249999999994998,0.23249999999995907,0.24500000000000455,0.2399999999999712,Cl2Li2O4H8,0.029,-1.25,4.763,-74.447,16,4,4.162,27.72,5.0,3.0,2.4775
2143,2261,0.24500000000000455,0.24500000000000455,0.24749999999994543,0.24583333333331817,Na2Cl2O4H8,0.048,-1.232,4.601,-72.992,16,4,4.522,32.006,6.0,3.0,2.47125
2144,2262,1.4174999999999613,1.4174999999999613,1.4174999999999613,1.4174999999999613,TiF2,0.087,-2.983,1.288,-18.811,3,2,2.601,7.01,13.333333333333334,6.0,3.1666666666666665
2145,2263,0.5250000000000341,0.47750000000002046,0.48500000000001364,0.49583333333335605,I2Ti,0.052,-0.67,0.596,-11.655,3,2,3.629,12.302,42.666666666666664,12.666666666666666,2.2866666666666666
2146,2264,1.8949999999999818,1.8475000000000819,1.8699999999998909,1.8708333333333182,Hg2Se2O8H4,0.006,-0.825,2.535,-76.222,16,4,4.332,31.242,18.5,6.75,2.83875
2147,2265,2.105000000000018,2.019999999999982,2.072499999999991,2.0658333333333303,Hg2Te2O8H4,0.022,-0.897,2.52,-76.821,16,4,4.631,32.076,20.75,6.75,2.7824999999999998
2148,2266,0.3125,0.3125,0.3125,0.3125,I2Li2O4H8,0.0,-1.137,3.719,-72.029,16,4,4.379,31.471,9.5,4.25,2.415
2149,2267,0.25499999999999545,0.25499999999999545,0.25499999999999545,0.25499999999999545,I2Na2O4H8,0.023,-1.121,3.591,-70.605,16,4,4.448,35.696,10.5,4.25,2.4087500000000004
2150,2268,0.5999999999999659,0.6125000000000114,0.46999999999997044,0.5608333333333159,TiSe2,0.126,-1.005,0.522,-16.67,3,2,3.24,10.58,30.0,12.0,2.2133333333333334
2151,2269,0.2300000000000182,0.2300000000000182,0.2300000000000182,0.2300000000000182,I2Na2S4H8,0.014,-0.445,3.615,-55.6,16,4,5.679,50.703,12.5,4.25,2.19375
2152,2270,0.4350000000000023,0.36250000000001137,0.33499999999997954,0.3774999999999977,Te2Ti,0.009,-0.691,0.0,-15.172,3,2,3.49,12.141,42.0,12.0,1.9133333333333333
2153,2271,0.6449999999999818,0.6175000000000068,0.44249999999999545,0.568333333333328,Te2Ti,0.109,-0.591,0.036,-14.872,3,2,3.577,12.093,42.0,12.0,1.9133333333333333
2154,2272,0.06749999999988177,0.13750000000004547,0.3474999999998545,0.1841666666665939,Mn2S2O8H4,0.082,-1.178,2.112,-100.732,16,4,5.859,29.178,9.375,4.875,2.78625