,ind,max_valorX,max_valorY,max_valorZ,media,formula,Ehull,HF,Gap,Energy,natoms,nspecies,thickness,uc_area,average_atomic_number,average_valence_number,average_electronegativity
1919,2036,0.25499999999999545,0.23999999999995225,0.23749999999995453,0.24416666666663409,FeBr2,0.0,-0.464,0.0,-13.604,3,2,2.992,12.155,32.0,14.0,2.5833333333333335
1920,2037,0.5550000000000068,0.5550000000000068,0.5550000000000068,0.5550000000000068,FeBr2,0.029,-0.435,0.0,-13.516,3,2,2.865,15.876,32.0,14.0,2.5833333333333335
1921,2038,0.24750000000000227,0.2699999999999818,0.2074999999999818,0.2416666666666553,FeBr2,0.081,-0.383,0.263,-13.359,3,2,3.286,11.049,32.0,14.0,2.5833333333333335
1922,2039,0.28499999999996817,0.2874999999999659,0.28499999999996817,0.28583333333330074,FeCl2,0.0,-0.742,0.0,-14.836,3,2,2.78,10.952,20.0,7.333333333333333,2.716666666666667
1923,2040,0.9549999999999841,0.9549999999999841,0.9549999999999841,0.9549999999999841,FeCl2,0.037,-0.704,0.0,-14.724,3,2,2.623,14.449,20.0,7.333333333333333,2.716666666666667
1924,2041,0.22999999999996135,0.22999999999996135,0.22999999999996135,0.22999999999996135,FeCl2,0.067,-0.674,0.351,-14.635,3,2,3.079,9.804,20.0,7.333333333333333,2.716666666666667
1925,2042,1.9774999999999636,1.9774999999999636,1.9774999999999636,1.9774999999999636,MnGaCl2O2,0.016,-1.43,0.19,-35.016,6,4,5.247,12.74,17.666666666666668,7.666666666666667,2.76
1926,2043,1.6124999999999545,1.6124999999999545,1.6124999999999545,1.6124999999999545,RhGaCl2O2,0.057,-1.106,0.613,-30.506,6,4,5.135,13.139,21.0,8.0,2.8816666666666664
1927,2044,0.23525000000000773,0.23525000000000773,0.23525000000000773,0.23525000000000773,FeH2,0.168,0.162,0.0,-15.205,3,2,2.05,5.241,9.333333333333334,3.3333333333333335,2.0766666666666667
1928,2045,61.9,61.9,61.9,61.9,HfGeBr2S2,0.063,-1.037,0.728,-29.568,6,4,6.122,19.309,34.333333333333336,10.666666666666666,2.3983333333333334
1929,2046,0.23750000000001137,0.2524999999999977,0.222500000000025,0.23750000000001137,I2Fe,0.0,-0.12,0.0,-12.358,3,2,3.227,14.115,44.0,14.0,2.3833333333333333
1930,2047,0.2825000000000273,0.3824999999999932,0.28750000000002274,0.3175000000000144,I2Fe,0.004,-0.116,0.065,-12.347,3,2,3.112,18.256,44.0,14.0,2.3833333333333333
1931,2048,0.33250000000003865,0.3275000000000432,0.2750000000000341,0.31166666666670534,I2Fe,0.112,-0.008,0.144,-12.022,3,2,3.546,12.985,44.0,14.0,2.3833333333333333
1932,2049,61.9,61.9,61.9,61.9,HfGeS2Cl2,0.094,-1.163,0.836,-30.727,6,4,5.791,18.938,28.333333333333332,7.333333333333333,2.465
1933,2050,0.7400000000000091,0.7400000000000091,0.7400000000000091,0.7400000000000091,FeO2,0.0,-1.136,0.0,-22.698,3,2,1.989,6.839,14.0,6.666666666666667,2.9033333333333338
1934,2051,0.9375,1.037499999999966,1.0249999999999773,0.999999999999981,FeO2,0.196,-0.94,0.0,-22.111,3,2,1.758,9.148,14.0,6.666666666666667,2.9033333333333338
1935,2052,0.5125000000000455,0.41250000000002274,0.2750000000000341,0.4000000000000341,Te2Fe,0.168,-0.026,0.0,-15.528,3,2,3.21,11.034,43.333333333333336,13.333333333333334,2.0100000000000002
1936,2053,1.1700000000000728,1.1700000000000728,1.1700000000000728,1.1700000000000728,I2TiGeS2,0.068,-0.768,0.486,-26.928,6,4,3.418,26.694,32.0,10.666666666666666,2.3383333333333334
1937,2054,6.909999999999968,6.922500000000014,6.909999999999968,6.91416666666665,ZnGeSe2Br2,0.077,-0.518,0.804,-18.943,6,4,5.285,24.624,33.333333333333336,15.333333333333334,2.4466666666666668
1938,2055,1.0275000000000318,1.0275000000000318,1.0275000000000318,1.0275000000000318,I2Ga,0.147,-0.344,0.0,-6.892,3,2,3.569,14.897,45.666666666666664,15.666666666666666,2.376666666666667
1939,2056,61.9,61.9,61.9,61.9,HfZrI2S2,0.0,-1.338,0.0,-34.049,6,4,6.015,19.459,41.666666666666664,9.0,2.185
1940,2057,1.1575000000000273,1.1575000000000273,1.1575000000000273,1.1575000000000273,I2Ge,0.003,-0.36,1.954,-8.553,3,2,3.49,16.016,46.0,16.0,2.4433333333333334
1941,2058,0.5674999999998818,0.5674999999998818,0.5674999999998818,0.5674999999998818,Ga4Se4Br4,0.047,-0.697,1.782,-40.245,12,3,5.861,50.942,33.333333333333336,15.333333333333334,2.44
1942,2059,0.3050000000000068,0.35000000000002274,0.30000000000001137,0.31833333333334696,GeO2,0.078,-1.57,3.641,-19.474,3,2,1.959,7.302,16.0,8.666666666666666,2.9633333333333334
1943,2060,61.9,61.9,61.9,61.9,GeO2,0.152,-1.496,3.006,-19.252,3,2,1.982,9.071,16.0,8.666666666666666,2.9633333333333334
1944,2061,0.9700000000000273,0.9700000000000273,0.9700000000000273,0.9700000000000273,InMnSe2Br2,0.088,-0.578,0.19,-26.085,6,4,3.521,29.325,35.333333333333336,14.333333333333334,2.3916666666666666
1945,2062,0.7224999999999682,0.7224999999999682,0.7224999999999682,0.7224999999999682,GeS2,0.049,-0.298,1.344,-13.565,3,2,2.853,12.363,21.333333333333332,8.666666666666666,2.39
1946,2063,0.40500000000002956,0.44000000000005457,0.42250000000001364,0.42250000000003257,GeS2,0.123,-0.224,0.729,-13.343,3,2,2.794,10.269,21.333333333333332,8.666666666666666,2.39
1947,2064,0.30750000000000455,0.4000000000000341,0.3650000000000091,0.3575000000000159,GeSe2,0.129,-0.137,0.0,-11.892,3,2,3.035,11.36,33.333333333333336,15.333333333333334,2.3699999999999997
1948,2065,0.15749999999997044,0.2799999999999727,0.3100000000000023,0.24916666666664847,Te2Ge,0.145,0.083,0.0,-10.677,3,2,3.437,12.958,45.333333333333336,15.333333333333334,2.07
1949,2066,1.5475000000000136,1.5475000000000136,1.5475000000000136,1.5475000000000136,IrPdBr2S2,0.083,-0.332,0.0,-26.414,6,4,5.702,17.312,37.5,10.833333333333334,2.58
1950,2067,2.607499999999959,2.752499999999941,2.644999999999982,2.668333333333294,IrRhI2S2,0.06,-0.332,0.0,-29.525,6,4,6.005,17.309,43.333333333333336,10.666666666666666,2.4933333333333336
1951,2068,61.9,61.9,61.9,61.9,HfBi2,0.067,-0.074,0.0,-17.077,3,2,5.001,9.849,79.33333333333333,11.333333333333334,1.78
1952,2069,61.9,61.9,61.9,61.9,HfBi2,0.071,-0.07,0.0,-17.064,3,2,5.033,9.785,79.33333333333333,11.333333333333334,1.78
1953,2070,61.9,61.9,61.9,61.9,HfBr2,0.007,-1.157,0.732,-14.145,3,2,3.697,10.61,47.333333333333336,12.666666666666666,2.4066666666666667
1954,2071,61.9,61.9,61.9,61.9,HfCl2,0.007,-1.54,0.908,-15.696,3,2,3.46,9.715,35.333333333333336,6.0,2.54
1955,2072,1.0824999999999818,1.0824999999999818,1.0824999999999818,1.0824999999999818,MnNiSe2S2,0.041,-0.371,0.0,-34.313,6,4,2.684,20.134,25.5,10.166666666666666,2.2866666666666666
1956,2073,61.9,61.9,61.9,61.9,HfI2,0.114,-0.674,0.63,-12.486,3,2,3.895,12.329,59.333333333333336,12.666666666666666,2.2066666666666666
1957,2074,61.9,61.9,61.9,61.9,HfS2,0.0,-1.592,1.221,-20.439,3,2,2.896,11.551,34.666666666666664,5.333333333333333,2.1533333333333333
1958,2075,61.9,61.9,61.9,61.9,HfSe2,0.0,-1.349,0.427,-18.519,3,2,3.152,12.326,46.666666666666664,12.0,2.1333333333333333
1959,2076,61.9,61.9,61.9,61.9,HfSe2,0.174,-1.175,0.812,-17.998,3,2,3.365,11.708,46.666666666666664,12.0,2.1333333333333333
1960,2077,1.5275000000000318,1.5275000000000318,1.5275000000000318,1.5275000000000318,Ti2Br2NO,0.022,-1.817,0.0,-40.928,6,4,5.376,13.521,21.5,8.833333333333334,2.5799999999999996
1961,2078,61.9,61.9,61.9,61.9,HfTe2,0.007,-0.824,0.0,-16.388,3,2,3.536,13.698,58.666666666666664,12.0,1.8333333333333333
1962,2079,61.9,61.9,61.9,61.9,HfTe2,0.133,-0.698,0.132,-16.008,3,2,3.699,13.235,58.666666666666664,12.0,1.8333333333333333
1963,2080,0.402499999999975,0.402499999999975,0.402499999999975,0.402499999999975,HgBr2,0.0,-0.531,2.791,-5.648,3,2,3.251,17.305,50.0,15.333333333333334,2.64
1964,2081,0.33749999999997726,0.33749999999997726,0.33749999999997726,0.33749999999997726,HgBr2,0.019,-0.512,2.007,-5.59,3,2,3.297,18.107,50.0,15.333333333333334,2.64
1965,2082,2.0649999999999977,2.0649999999999977,2.0649999999999977,2.0649999999999977,HgCl2,0.033,-0.624,2.468,-6.326,3,2,3.023,16.997,38.0,8.666666666666666,2.7733333333333334
1966,2083,0.12749999999994088,0.12749999999994088,0.12749999999994088,0.12749999999994088,HgF2,0.032,-1.543,1.728,-8.689,3,2,2.057,11.595,32.666666666666664,8.666666666666666,3.3200000000000003
1967,2084,0.214999999999975,0.30750000000000455,0.214999999999975,0.24583333333331817,HgI2,0.006,-0.351,1.54,-4.895,3,2,3.539,20.467,62.0,15.333333333333334,2.44
1968,2085,0.41500000000002046,0.3925000000000409,0.5225000000000364,0.44333333333336594,HgI2,0.027,-0.33,2.224,-4.832,3,2,3.613,19.737,62.0,15.333333333333334,2.44
1969,2086,1.4250000000000682,1.4250000000000682,1.4250000000000682,1.4250000000000682,PdI2NiS2,0.084,-0.201,0.0,-23.385,6,4,5.879,17.506,35.333333333333336,11.0,2.4316666666666666
1970,2087,1.8250000000000455,1.8250000000000455,1.8250000000000455,1.8250000000000455,InI2,0.195,-0.34,0.0,-6.741,3,2,4.089,15.64,51.666666666666664,15.666666666666666,2.3666666666666667
1971,2088,1.365000000000009,1.365000000000009,1.365000000000009,1.365000000000009,SeBr2Al2S,0.058,-1.003,1.893,-24.224,6,4,5.584,18.139,24.333333333333332,10.333333333333334,2.3783333333333334
1972,2089,5.802500000000009,5.802500000000009,5.802500000000009,5.802500000000009,Bi2SeSCl2,0.029,-0.645,0.826,-24.35,6,4,6.236,24.023,41.666666666666664,11.0,2.5816666666666666
1973,2090,61.9,61.9,61.9,61.9,Hf2SeBr2S,0.004,-1.402,0.0,-34.153,6,4,5.611,19.017,44.0,10.666666666666666,2.275
1974,2091,2.2024999999999864,2.2024999999999864,2.2024999999999864,2.2024999999999864,Mn2SeSCl2,0.087,-0.703,0.0,-34.782,6,4,3.27,25.959,22.333333333333332,8.333333333333334,2.4250000000000003
1975,2092,0.2112499999999784,0.2112499999999784,0.2112499999999784,0.2112499999999784,IrH2,0.187,0.187,0.0,-15.364,3,2,2.014,6.488,26.333333333333332,3.6666666666666665,2.2
1976,2093,2.8450000000000273,2.8450000000000273,2.8450000000000273,2.8450000000000273,Sc2SeSCl2,0.007,-1.975,1.614,-32.302,6,4,5.495,19.604,21.0,7.0,2.361666666666667
1977,2094,0.8449999999999136,0.8274999999999864,0.8274999999999864,0.8333333333332954,I2Cr2SeS,0.011,-0.56,0.183,-32.693,6,4,6.053,18.314,34.0,11.333333333333334,2.2950000000000004
1978,2095,1.1924999999999955,1.1924999999999955,1.1924999999999955,1.1924999999999955,Ir2I2SeS,0.065,-0.215,0.085,-30.359,6,4,6.001,18.186,51.666666666666664,12.333333333333334,2.475
1979,2096,0.03499999999999659,0.11499999999998067,0.11474999999998658,0.08824999999998795,IrLi2,0.195,0.009,0.0,-13.028,3,2,4.093,6.508,27.666666666666668,3.6666666666666665,1.3866666666666667
1980,2097,0.8349999999999227,0.5974999999999682,0.6024999999999636,0.6783333333332848,Nb2I2SeS,0.064,-0.773,0.0,-35.81,6,4,5.897,19.048,39.666666666666664,11.0,2.275
1981,2098,1.5024999999999409,1.5024999999999409,1.5024999999999409,1.5024999999999409,Rh2I2SeS,0.077,-0.343,0.284,-26.867,6,4,5.44,18.34,41.0,12.333333333333334,2.5016666666666665
1982,2099,0.9174999999999613,0.9174999999999613,0.9174999999999613,0.9174999999999613,I2Sc2SeS,0.007,-1.604,1.449,-29.463,6,4,6.287,20.742,33.0,10.333333333333334,2.195
1983,2100,0.8599999999999,0.5974999999999682,0.6374999999999318,0.6983333333332666,Ta2I2SeS,0.07,-0.667,0.0,-34.152,6,4,5.908,18.921,50.333333333333336,11.0,2.2416666666666667
1984,2101,1.0124999999999318,0.9800000000000182,0.9800000000000182,0.9908333333333227,I2V2SeS,0.051,-0.665,0.214,-31.555,6,4,5.846,19.086,33.666666666666664,11.0,2.2849999999999997
1985,2102,0.7724999999999795,0.7799999999999727,0.7724999999999795,0.7749999999999773,In2TeI2S,0.09,-0.416,0.833,-18.264,6,4,4.968,31.669,45.333333333333336,13.666666666666666,2.2600000000000002
1986,2103,0.3199999999999932,0.29249999999996135,0.2999999999999545,0.30416666666663633,Br2Mg,0.0,-1.532,4.588,-9.384,3,2,3.014,13.061,27.333333333333332,12.0,2.41
1987,2104,0.3550000000000182,0.2925000000000182,0.2524999999999977,0.30000000000001137,Br2Mg,0.065,-1.467,4.265,-9.189,3,2,3.011,16.622,27.333333333333332,12.0,2.41
1988,2105,0.33499999999997954,0.33499999999997954,0.29750000000001364,0.3224999999999909,MgCl2,0.0,-1.887,5.941,-10.849,3,2,2.746,11.683,15.333333333333334,5.333333333333333,2.5433333333333334
1989,2106,0.36000000000001364,0.3875000000000455,0.285000000000025,0.3441666666666947,MgCl2,0.079,-1.808,5.293,-10.612,3,2,2.698,15.206,15.333333333333334,5.333333333333333,2.5433333333333334
1990,2107,0.1325000000000145,0.1325000000000145,0.1325000000000145,0.1325000000000145,MgF2,0.071,-3.559,7.534,-15.467,3,2,1.906,8.24,10.0,5.333333333333333,3.09
1991,2108,0.3250000000000455,0.28750000000002274,0.27000000000003865,0.29416666666670227,I2Mg,0.001,-1.08,3.273,-7.815,3,2,3.349,15.33,39.333333333333336,12.0,2.2100000000000004
1992,2109,0.3824999999999932,0.35000000000002274,0.23500000000001364,0.32250000000000983,I2Mg,0.04,-1.042,3.456,-7.701,3,2,3.374,19.29,39.333333333333336,12.0,2.2100000000000004
1993,2110,0.5349999999999682,0.5374999999999659,0.5374999999999659,0.5366666666666333,MnBr2,0.0,-0.783,1.477,-15.233,3,2,3.021,13.108,31.666666666666668,13.666666666666666,2.4899999999999998
1994,2111,0.9850000000000136,0.9850000000000136,0.9850000000000136,0.9850000000000136,MnBr2,0.033,-0.75,1.775,-15.136,3,2,3.013,16.542,31.666666666666668,13.666666666666666,2.4899999999999998
1995,2112,2.7950000000000728,2.7950000000000728,2.7950000000000728,2.7950000000000728,I2Sc4Br2S4,0.0,-1.786,1.726,-62.511,12,4,6.082,39.256,27.0,8.666666666666666,2.25
1996,2113,0.8575000000000159,0.8575000000000159,0.8575000000000159,0.8575000000000159,MnCl2,0.0,-1.06,1.797,-16.467,3,2,2.767,11.987,19.666666666666668,7.0,2.6233333333333335
1997,2114,2.1100000000000136,2.1475000000000364,2.1225000000000023,2.1266666666666842,MnCl2,0.035,-1.025,2.025,-16.362,3,2,2.732,15.289,19.666666666666668,7.0,2.6233333333333335
1998,2115,1.9075000000000273,1.9075000000000273,1.9075000000000273,1.9075000000000273,I4Ti2V2S4,0.051,-0.942,0.0,-63.953,12,4,5.873,35.573,30.5,9.166666666666666,2.275
1999,2116,0.962500000000091,0.962500000000091,1.0900000000000318,1.0050000000000712,I2V2BrClO2,0.0,-1.341,0.749,-44.354,8,5,3.891,28.587,27.5,10.0,2.6975
2000,2117,0.4552500000000066,0.47024999999999295,0.4552500000000066,0.46025000000000205,MnH2,0.129,0.129,0.0,-15.977,3,2,2.053,5.529,9.0,3.0,1.9833333333333334
2001,2118,0.31749999999999545,0.2799999999999727,0.27499999999997726,0.2908333333333151,I2Mn,0.0,-0.419,0.877,-13.932,3,2,3.299,15.028,43.666666666666664,13.666666666666666,2.29
2002,2119,1.349999999999966,1.4699999999999704,1.3999999999999773,1.4066666666666379,I2Mn,0.012,-0.408,1.224,-13.897,3,2,3.298,18.887,43.666666666666664,13.666666666666666,2.29
2003,2120,61.9,61.9,61.9,61.9,HfZr2Se2SCl2,0.012,-1.531,0.0,-49.171,8,5,6.98,19.713,33.75,8.0,2.245
2004,2121,1.2824999999999704,1.2824999999999704,1.2824999999999704,1.2824999999999704,MnO2,0.018,-1.642,1.132,-24.892,3,2,1.92,7.254,13.666666666666666,6.333333333333333,2.81
2005,2122,0.21749999999997272,0.20999999999997954,0.19499999999999318,0.2074999999999818,MnS2,0.0,-0.567,0.0,-19.573,3,2,2.642,9.719,19.0,6.333333333333333,2.236666666666667
2006,2123,0.5124999999999886,0.46500000000003183,0.4925000000000068,0.4900000000000091,MnSe2,0.0,-0.469,0.0,-18.09,3,2,2.864,10.574,31.0,13.0,2.2166666666666663
2007,2124,0.43250000000000455,0.34749999999996817,0.34749999999996817,0.37583333333331365,Te2Mn,0.0,-0.2,0.0,-16.726,3,2,3.135,12.084,43.0,13.0,1.9166666666666667
2008,2125,0.3100000000000023,0.2999999999999545,0.23999999999995225,0.283333333333303,Te2Mn,0.096,-0.104,0.0,-16.439,3,2,3.289,11.601,43.0,13.0,1.9166666666666667
2009,2126,2.6075000000000728,2.6075000000000728,2.6075000000000728,2.6075000000000728,Bi2SbI2Se2S,0.097,-0.293,0.0,-30.096,8,5,8.361,26.221,50.875,14.625,2.3862499999999995
2010,2127,1.4375,1.4049999999999727,1.4400000000000546,1.427500000000009,Zr2I2GeSe3Br2O,0.131,-1.164,1.195,-53.823,11,6,6.642,42.031,36.18181818181818,13.090909090909092,2.454545454545455
2011,2128,3.947499999999991,3.947499999999991,3.947499999999991,3.947499999999991,Ir2Pd2I3Se3BrS,0.078,-0.261,0.0,-49.868,12,6,6.006,38.024,46.5,13.333333333333334,2.4975
2012,2129,1.3700000000000045,1.3700000000000045,1.3700000000000045,1.3700000000000045,MoO2,0.028,-1.979,0.912,-27.388,3,2,2.45,6.889,19.333333333333332,6.0,3.013333333333333
2013,2130,0.15250000000003183,0.20499999999998408,0.20249999999998636,0.18666666666666742,MoS2,0.0,-0.921,1.58,-22.121,3,2,3.127,8.78,24.666666666666668,6.0,2.44
2014,2131,0.9074999999999704,0.8174999999999955,0.6499999999999773,0.7916666666666478,MoSb2,0.19,0.163,0.0,-19.526,3,2,4.079,9.484,48.0,12.0,2.0866666666666664
2015,2132,7.6124999999999545,7.457499999999982,7.457499999999982,7.50916666666664,AgGaSe4P2S2,0.005,-0.248,0.923,-41.041,10,5,3.48,34.908,27.6,11.0,2.348
2016,2133,0.7299999999999613,0.6949999999999932,0.7724999999999795,0.7324999999999781,MoSe2,0.0,-0.708,1.321,-20.291,3,2,3.338,9.544,36.666666666666664,12.666666666666666,2.42
2017,2134,9.377500000000055,9.742500000000064,9.652500000000032,9.590833333333384,InGaSe2P2S4,0.095,-0.293,0.955,-42.605,10,5,3.625,37.29,24.2,9.2,2.339
2018,2135,0.6274999999999977,0.5850000000000364,0.5850000000000364,0.5991666666666902,MoTe2,0.0,-0.301,0.932,-18.513,3,2,3.61,10.898,48.666666666666664,12.666666666666666,2.12
2019,2137,0.08774999999999977,0.12299999999999045,0.12074999999998681,0.11049999999999234,Sr2N,0.197,-0.35,0.0,-12.752,3,2,2.754,12.949,27.666666666666668,3.0,1.6466666666666665
2020,2138,1.4624999999998636,1.4624999999998636,1.4624999999998636,1.4624999999998636,Ir2Ni2BrS6Cl,0.082,-0.352,0.251,-65.113,12,5,2.92,42.602,29.833333333333332,8.166666666666666,2.485
2021,2139,3.597499999999968,3.597499999999968,3.597499999999968,3.597499999999968,IGe2ClO3,0.091,-1.189,0.986,-35.99,7,4,5.868,19.042,22.571428571428573,10.0,2.88
2022,2140,1.8400000000000318,1.8400000000000318,1.8400000000000318,1.8400000000000318,I3MnCuS2,0.088,-0.21,0.131,-27.456,7,4,3.459,31.965,35.0,11.571428571428571,2.3700000000000006
2023,2141,0.1400000000000432,0.2300000000000182,0.17000000000001592,0.18000000000002578,NbS2,0.033,-1.052,0.0,-21.638,3,2,3.076,9.879,24.333333333333332,5.666666666666667,2.2533333333333334
2024,2142,0.41250000000002274,0.4300000000000068,0.30000000000001137,0.38083333333334696,NbSe2,0.001,-0.877,0.0,-19.924,3,2,3.353,10.437,36.333333333333336,12.333333333333334,2.233333333333333
2025,2143,0.26499999999998636,0.32499999999998863,0.21249999999997726,0.2674999999999841,NbSe2,0.033,-0.845,0.0,-19.828,3,2,3.338,10.496,36.333333333333336,12.333333333333334,2.233333333333333
2026,2144,0.5475000000000136,0.5224999999999795,0.4124999999999659,0.49416666666665304,NbTe2,0.018,-0.442,0.0,-18.063,3,2,3.691,11.741,48.333333333333336,12.333333333333334,1.9333333333333336
2027,2145,0.3975000000000364,0.4175000000000182,0.26249999999998863,0.35916666666668107,NbTe2,0.028,-0.432,0.0,-18.032,3,2,3.709,11.554,48.333333333333336,12.333333333333334,1.9333333333333336
2028,2146,0.8424999999999727,0.42250000000001364,0.55499999999995,0.6066666666666455,TeITi3N2,0.085,-1.097,0.0,-49.138,7,4,8.429,9.451,26.428571428571427,7.857142857142857,2.2085714285714286
2029,2147,0.2400000000000091,0.2400000000000091,0.2400000000000091,0.2400000000000091,NiBr2,0.0,-0.407,0.876,-11.636,3,2,2.808,11.85,32.666666666666664,14.666666666666666,2.61
2030,2148,0.26249999999998863,0.2874999999999659,0.17499999999995453,0.24166666666663636,NiBr2,0.14,-0.266,0.0,-11.215,3,2,2.71,15.333,32.666666666666664,14.666666666666666,2.61
2031,2149,0.33499999999997954,0.33499999999997954,0.33499999999997954,0.33499999999997954,NiCl2,0.0,-0.641,1.219,-12.739,3,2,2.617,10.623,20.666666666666668,8.0,2.7433333333333336
2032,2150,0.5325000000000273,0.5325000000000273,0.5325000000000273,0.5325000000000273,NiF2,0.006,-1.738,1.549,-15.634,3,2,1.999,8.285,15.333333333333334,8.0,3.2899999999999996
2033,2151,0.021500000000003183,0.06074999999998454,0.05125000000001023,0.04449999999999932,NiH2,0.102,0.074,0.0,-13.674,3,2,1.861,5.411,10.0,4.0,2.1033333333333335
2034,2152,0.2249999999999659,0.2524999999999977,0.27249999999997954,0.24999999999998104,I2Ni,0.0,-0.13,0.106,-10.593,3,2,3.027,13.647,44.666666666666664,14.666666666666666,2.41
2035,2153,0.3450000000000273,0.38500000000004775,0.21750000000002956,0.3158333333333682,I2Ni,0.099,-0.031,0.0,-10.296,3,2,2.941,17.291,44.666666666666664,14.666666666666666,2.41