,ind,max_valorX,max_valorY,max_valorZ,media,formula,Ehull,HF,Gap,Energy,natoms,nspecies,thickness,uc_area,average_atomic_number,average_valence_number,average_electronegativity
2901,3078,0.9199999999998454,0.9199999999998454,0.9199999999998454,0.9199999999998454,As8S8O4,0.042,-0.458,2.078,-99.589,20,3,3.626,88.881,21.2,9.6,2.5919999999999996
2902,3079,1.0699999999999363,1.0699999999999363,1.0699999999999363,1.0699999999999363,As8Se8O4,0.053,-0.431,1.711,-94.29,20,3,3.891,90.504,28.4,13.6,2.58
2903,3080,0.8324999999999818,0.9774999999999636,0.9950000000001182,0.9350000000000213,Pd2Se2O6,0.0,-0.646,1.12,-51.809,10,3,3.918,26.952,20.8,8.8,3.0140000000000002
2904,3081,1.8624999999999545,1.8624999999999545,1.8624999999999545,1.8624999999999545,Bi8S8O4,0.048,-0.626,1.356,-103.041,20,3,3.537,89.702,41.2,9.6,2.5279999999999996
2905,3082,2.3174999999998818,2.3174999999998818,2.3174999999998818,2.3174999999998818,Bi8Se8O4,0.067,-0.624,1.034,-98.239,20,3,3.899,94.403,48.4,13.6,2.516
2906,3083,0.9200000000000728,0.9175000000000182,0.712500000000091,0.8500000000000606,Pd2Se2O6,0.002,-0.644,0.636,-51.788,10,3,4.347,25.409,20.8,8.8,3.0140000000000002
2907,3084,1.0174999999999272,0.9924999999998363,0.8074999999998909,0.9391666666665515,Pd2Te2O6,0.08,-0.764,0.369,-52.433,10,3,4.615,25.051,24.4,8.8,2.9240000000000004
2908,3085,0.9399999999998272,1.0174999999999272,1.0274999999999181,0.9949999999998909,Pd2Te2O6,0.08,-0.764,1.001,-52.431,10,3,4.237,26.488,24.4,8.8,2.9240000000000004
2909,3086,1.3974999999999227,1.3949999999999818,1.474999999999909,1.422499999999938,Pd2Te2S6,0.056,-0.137,1.006,-39.891,10,3,5.309,29.183,29.2,8.8,2.4080000000000004
2910,3087,1.3274999999998727,1.3274999999998727,1.3274999999998727,1.3274999999998727,Sb8S8O4,0.014,-0.624,1.879,-100.85,20,3,3.432,86.525,28.4,9.6,2.54
2911,3088,1.5700000000001637,1.5700000000001637,1.5700000000001637,1.5700000000001637,Sb8Se8O4,0.027,-0.602,1.431,-95.649,20,3,3.6,89.805,35.6,13.6,2.5279999999999996
2912,3089,0.3925000000001546,0.48500000000012733,0.8250000000000455,0.5675000000001091,Pt2S2O6,0.072,-0.765,1.456,-59.259,10,3,3.591,27.231,23.6,6.8,3.036
2913,3090,4.982499999999845,4.980000000000018,4.980000000000018,4.980833333333294,As8Se8S4,0.035,-0.089,1.395,-83.266,20,3,4.311,112.996,30.0,13.6,2.4080000000000004
2914,3091,0.43250000000000455,0.43250000000000455,0.43250000000000455,0.43250000000000455,Ba2Cl2F2,0.053,-3.291,5.533,-30.148,6,3,5.579,18.269,27.333333333333332,5.333333333333333,2.6766666666666663
2915,3092,0.6000000000001364,0.6125000000001819,0.3500000000001364,0.5208333333334849,Pt2S2O6,0.087,-0.75,0.86,-59.113,10,3,4.226,24.131,23.6,6.8,3.036
2916,3093,0.6900000000000546,0.837500000000091,0.9400000000000546,0.8225000000000667,Pt2Se2O6,0.02,-0.59,1.305,-56.321,10,3,3.85,27.817,27.2,8.8,3.0300000000000002
2917,3094,0.7899999999999636,0.8075000000001182,0.6075000000000728,0.7350000000000515,Pt2Se2O6,0.035,-0.575,0.828,-56.171,10,3,4.328,26.058,27.2,8.8,3.0300000000000002
2918,3095,1.4500000000002728,1.4500000000002728,1.4500000000002728,1.4500000000002728,Mn8S4Cl8,0.036,-0.795,0.221,-124.237,20,3,5.805,47.578,20.0,6.8,2.4
2919,3096,0.5774999999999864,0.5774999999999864,0.5774999999999864,0.5774999999999864,Ba2Cl2H2,0.056,-1.574,3.747,-23.317,6,3,5.384,18.316,24.666666666666668,3.3333333333333335,2.0833333333333335
2920,3097,1.4424999999999955,1.44500000000005,1.490000000000009,1.459166666666685,Pt2Te2S6,0.091,-0.153,0.724,-45.114,10,3,5.33,29.788,35.6,8.8,2.4240000000000004
2921,3098,0.7350000000001273,0.35750000000007276,0.6200000000001182,0.5708333333334394,Rh2Sb2O6,0.095,-0.991,1.007,-63.767,10,3,4.057,23.47,24.0,8.4,2.93
2922,3099,0.6625000000000227,0.8100000000000591,1.0450000000000728,0.8391666666667182,Rh2Sb2S6,0.098,-0.307,0.152,-50.643,10,3,2.877,35.37,28.8,8.4,2.414
2923,3100,0.1974999999999909,0.17499999999995453,0.17499999999995453,0.18249999999996666,Ta4Co8S8,0.071,-0.601,0.0,-149.742,20,3,5.126,40.921,31.8,7.0,2.084
2924,3101,0.4924999999998363,0.5199999999999818,0.4924999999998363,0.5016666666665515,Ta4Co8Se8,0.011,-0.511,0.0,-143.185,20,3,5.455,41.685,39.0,11.0,2.072
2925,3102,0.375,0.599999999999909,0.4274999999997817,0.46749999999989694,Ta4Te8Co8,0.0,-0.361,0.0,-137.954,20,3,5.834,42.809,46.2,11.0,1.8920000000000001
2926,3103,0.38999999999998636,0.38999999999998636,0.38999999999998636,0.38999999999998636,Ba2I2Cl2,0.034,-2.19,3.69,-23.322,6,3,6.737,23.727,42.0,8.666666666666666,2.236666666666667
2927,3104,0.30999999999994543,0.5950000000000273,0.36750000000006366,0.4241666666666788,Rh2Sb2Se6,0.061,-0.324,0.117,-47.242,10,3,2.956,38.78,39.6,14.4,2.396
2928,3105,0.11999999999989086,0.23250000000007276,0.13499999999976353,0.16249999999990905,Ta4Ni8S8,0.057,-0.627,0.0,-142.414,20,3,4.575,44.226,32.2,7.4,2.096
2929,3106,0.3524999999999636,0.3524999999999636,0.3524999999999636,0.3524999999999636,Ba2I2Cl2,0.084,-2.14,4.108,-23.022,6,3,4.167,40.331,42.0,8.666666666666666,2.236666666666667
2930,3107,0.3374999999998636,0.4700000000000273,0.3450000000000273,0.3841666666666394,Rh2Sb2Te6,0.072,-0.259,0.249,-44.926,10,3,3.155,44.227,50.4,14.4,2.1260000000000003
2931,3108,1.8600000000000136,1.8374999999999773,1.8374999999999773,1.8449999999999893,Sb2Sc2O6,0.018,-2.471,3.376,-73.59,10,3,4.14,24.583,19.2,7.2,2.746
2932,3109,5.897500000000036,5.810000000000059,5.8900000000001,5.8658333333333985,Au2AgSe2Br2,0.083,-0.13,0.0,-20.141,7,4,5.605,29.092,49.0,14.142857142857142,2.575714285714286
2933,3111,0.0,0.0,0.009999999999990905,0.0033333333333303017,Ba2Co2Ge2,0.094,-0.317,0.0,-31.049,6,3,5.552,16.68,38.333333333333336,8.333333333333334,1.593333333333333
2934,3112,0.5249999999999773,0.28749999999990905,0.5224999999999227,0.44499999999993634,Sb2Sc2Se6,0.0,-0.897,1.115,-48.002,10,3,4.035,40.82,34.8,13.2,2.2119999999999997
2935,3113,5.615000000000009,5.615000000000009,5.615000000000009,5.615000000000009,Sb2Se6Si2,0.01,-0.348,1.01,-43.988,10,3,3.702,39.655,33.4,13.4,2.32
2936,3115,6.277500000000032,6.277500000000032,6.277500000000032,6.277500000000032,Sb2Te6Si2,0.0,-0.122,0.832,-40.055,10,3,3.929,45.607,44.2,13.4,2.0500000000000003
2937,3117,0.34749999999996817,0.34749999999996817,0.34749999999996817,0.34749999999996817,Ba2I2F2,0.001,-2.962,3.9,-27.557,6,3,6.312,20.277,39.333333333333336,8.666666666666666,2.5100000000000002
2938,3118,0.40250000000003183,0.40250000000003183,0.40250000000003183,0.40250000000003183,Tl2Sb2O6,0.126,-1.192,2.828,-56.478,10,3,6.325,24.989,31.2,9.2,2.882
2939,3119,0.8899999999999864,0.8899999999999864,0.8899999999999864,0.8899999999999864,Tl2Te6Si2,0.091,-0.055,0.043,-35.574,10,3,3.936,45.494,50.2,13.0,2.048
2940,3120,0.2625000000000455,0.26499999999998636,0.1974999999999909,0.24166666666667425,Ba2AuBr2O2,0.094,-1.773,0.0,-32.614,7,4,6.746,18.816,39.57142857142857,8.714285714285714,2.4457142857142857
2941,3122,0.7150000000000318,0.7250000000000227,0.6649999999999636,0.7016666666666728,Ba2AuI2O2,0.08,-1.61,0.0,-31.262,7,4,7.256,19.3,44.714285714285715,8.714285714285714,2.36
2942,3123,0.724999999999909,0.724999999999909,0.724999999999909,0.724999999999909,Au4Se4O12,0.064,-0.399,0.268,-95.929,20,3,2.805,80.931,27.4,9.0,3.082
2943,3124,1.727500000000191,1.727500000000191,1.727500000000191,1.727500000000191,Bi4B4O12,0.039,-1.861,2.865,-144.235,20,3,4.248,41.951,22.4,7.2,2.8760000000000003
2944,3125,1.574999999999818,1.5799999999999272,1.574999999999818,1.5766666666665212,Bi4S12B4,0.085,-0.315,1.486,-100.753,20,3,5.452,66.041,27.2,7.2,2.3600000000000003
2945,3126,0.6925000000001091,0.7100000000000364,0.6925000000001091,0.6983333333334182,Sb4B4O12,0.006,-1.877,3.856,-143.469,20,3,4.021,44.593,16.0,7.2,2.882
2946,3127,4.079999999999927,3.494999999999891,3.7000000000000455,3.758333333333288,Ca4Se4O12,0.01,-1.907,4.533,-121.605,20,3,4.031,53.742,15.6,7.2,2.774
2947,3128,6.154999999999973,6.154999999999973,6.154999999999973,6.154999999999973,Te4Ca4O12,0.01,-2.02,3.969,-122.75,20,3,4.384,54.274,19.2,7.2,2.684
2948,3129,0.3249999999998181,0.3000000000001819,0.34999999999990905,0.3249999999999697,V4O4F12,0.0,-2.756,3.465,-128.758,20,3,4.432,44.491,11.6,6.4,3.4019999999999997
2949,3130,0.11750000000000682,2.1850000000000023,1.6725000000000136,1.3250000000000075,Na2Be2N2,0.07,-0.532,0.005,-29.915,6,3,4.305,9.485,7.333333333333333,2.6666666666666665,1.8466666666666667
2950,3131,0.15000000000009095,0.1750000000001819,0.125,0.15000000000009095,V4S4F12,0.082,-2.267,2.06,-114.793,20,3,5.268,47.553,13.2,6.4,3.2299999999999995
2951,3132,5.130000000000109,5.130000000000109,5.130000000000109,5.130000000000109,Sr4Se4O12,0.029,-1.895,4.547,-120.025,20,3,4.04,60.378,19.2,7.2,2.7640000000000002
2952,3133,0.19249999999999545,0.17000000000001592,0.7050000000000409,0.35583333333335077,Na2P2Be2,0.0,-0.404,0.597,-23.171,6,3,4.747,13.859,10.0,2.6666666666666665,1.5633333333333335
2953,3134,5.7000000000000455,5.7000000000000455,5.7000000000000455,5.7000000000000455,Sr4Te4O12,0.011,-2.004,4.028,-121.087,20,3,4.387,61.362,22.8,7.2,2.6740000000000004
2954,3135,6.6749999999999545,6.6749999999999545,6.6749999999999545,6.6749999999999545,Sr4Te4S12,0.055,-0.812,2.244,-84.697,20,3,5.048,89.082,27.6,7.2,2.158
2955,3136,0.43250000000000455,0.37999999999999545,0.40250000000003183,0.40500000000001063,IrInI3Br3,0.028,-0.486,1.651,-25.116,8,4,3.191,42.712,48.75,15.5,2.605
2956,3137,2.652499999999918,2.699999999999932,2.7474999999999454,2.699999999999932,ZrMoI3Br3,0.092,-0.808,0.704,-34.26,8,4,3.808,39.243,43.25,14.0,2.54375
2957,3138,0.7324999999999591,0.7324999999999591,0.7374999999999545,0.7341666666666242,TiNiBr3Cl3,0.047,-1.055,1.042,-32.487,8,4,3.046,34.738,25.75,10.75,2.72625
2958,3139,1.6075000000000728,1.6075000000000728,1.6075000000000728,1.6075000000000728,Pd3ZnBr3ClO4,0.082,-0.478,0.0,-45.413,12,5,5.557,27.79,26.833333333333332,10.333333333333334,2.8375
2959,3140,1.0675000000001091,1.0675000000001091,1.0675000000001091,1.0675000000001091,Ir3I4CoSeS3,0.064,-0.252,0.0,-60.71,12,5,5.982,34.644,46.0,11.5,2.4508333333333336
2960,3141,61.9,61.9,61.9,61.9,HfMn3SeS4Cl3,0.059,-0.949,0.777,-73.198,12,5,3.233,44.669,24.666666666666668,7.166666666666667,2.3583333333333334
2961,3142,0.1349999999999909,0.3100000000001728,0.1150000000000091,0.18666666666672427,Au3InIBr3O4,0.077,-0.378,0.738,-43.42,12,5,6.764,35.762,39.666666666666664,11.5,2.891666666666666
2962,3143,61.9,61.9,61.9,61.9,Hf4ISeBr3S3,0.0,-1.402,0.0,-68.799,12,5,5.86,38.068,44.0,9.833333333333334,2.2525
2963,3144,61.9,61.9,61.9,61.9,Hf3ScBr4N3O,0.027,-1.953,2.677,-87.138,12,5,5.907,29.456,33.833333333333336,8.666666666666666,2.471666666666667
2964,3145,61.9,61.9,61.9,61.9,Hf3TiSeBr4S3,0.001,-1.432,0.0,-68.453,12,5,5.594,37.194,38.333333333333336,9.833333333333334,2.2975
2965,3146,0.014999999999986358,0.33749999999997726,0.38250000000005,0.24500000000000455,Mn2CO2H2,0.193,-0.679,0.0,-50.305,7,4,6.548,7.875,10.571428571428571,4.571428571428571,2.4185714285714286
2966,3147,0.020000000000038654,0.11250000000001137,0.1775000000000091,0.10333333333335304,Ti2CO2H2,0.162,-1.43,0.0,-49.506,7,4,6.788,8.175,9.714285714285714,3.7142857142857144,2.415714285714286
2967,3148,0.049999999999954525,0.10749999999995907,0.15999999999996817,0.10583333333329392,V2CO2H2,0.133,-1.06,0.0,-50.588,7,4,6.568,7.843,10.0,4.0,2.4414285714285713
2968,3149,5.072499999999991,5.072499999999991,5.072499999999991,5.072499999999991,Pb2CdBr2O2,0.0,-1.12,2.646,-29.703,7,4,4.12,24.67,42.57142857142857,12.285714285714286,2.7357142857142853
2969,3150,5.237500000000068,5.237500000000068,5.237500000000068,5.237500000000068,CdSn2Br2O2,0.022,-1.11,2.48,-30.226,7,4,4.018,24.196,33.42857142857143,12.285714285714286,2.63
2970,3151,4.747499999999945,4.747499999999945,4.747499999999945,4.747499999999945,CdSn2Br2S2,0.036,-0.627,2.038,-24.752,7,4,3.679,31.065,35.714285714285715,12.285714285714286,2.384285714285714
2971,3152,5.617500000000064,5.617500000000064,5.617500000000064,5.617500000000064,Pb2CdCl2O2,0.0,-1.212,2.869,-30.75,7,4,3.778,24.052,37.42857142857143,9.428571428571429,2.792857142857143
2972,3153,5.615000000000009,5.615000000000009,5.615000000000009,5.615000000000009,CdSn2Cl2O2,0.015,-1.209,2.714,-31.322,7,4,3.701,23.584,28.285714285714285,9.428571428571429,2.687142857142857
2973,3154,5.137499999999932,5.137499999999932,5.137499999999932,5.137499999999932,CdSn2S2Cl2,0.047,-0.708,2.093,-25.721,7,4,3.318,30.242,30.571428571428573,9.428571428571429,2.4414285714285713
2974,3155,4.267500000000041,4.267500000000041,4.267500000000041,4.267500000000041,Pb2CdO2F2,0.04,-1.664,2.892,-33.514,7,4,3.133,21.953,35.142857142857146,9.428571428571429,3.027142857142857
2975,3156,4.502499999999941,4.502499999999941,4.502499999999941,4.502499999999941,CdSn2O2F2,0.059,-1.685,2.693,-34.259,7,4,3.002,21.4,26.0,9.428571428571429,2.9214285714285713
2976,3157,0.007499999999936335,0.007499999999936335,0.015000000000100044,0.009999999999990905,S2Li6O8H2,0.024,-1.741,4.475,-98.476,18,4,5.793,32.787,6.444444444444445,3.7777777777777777,2.3866666666666667
2977,3158,0.012500000000045475,0.012500000000045475,0.01999999999998181,0.015000000000024253,Na6S2O8H2,0.064,-1.557,3.857,-91.662,18,4,6.759,40.954,9.11111111111111,3.7777777777777777,2.3699999999999997
2978,3159,4.872499999999945,4.872499999999945,4.872499999999945,4.872499999999945,Pb2CdI2O2,0.0,-0.973,2.153,-28.462,7,4,4.586,25.756,47.714285714285715,12.285714285714286,2.65
2979,3160,4.944999999999936,4.944999999999936,4.944999999999936,4.944999999999936,CdSn2I2O2,0.06,-0.954,1.968,-28.925,7,4,4.422,25.345,38.57142857142857,12.285714285714286,2.544285714285714
2980,3161,0.007500000000163709,0.009999999999990905,0.017500000000154614,0.011666666666769743,Se2Li6O8H2,0.0,-1.619,4.572,-95.084,18,4,5.659,34.277,8.444444444444445,4.888888888888889,2.3833333333333333
2981,3162,4.634999999999991,4.634999999999991,4.634999999999991,4.634999999999991,CdSn2I2S2,0.045,-0.507,1.906,-23.704,7,4,4.158,32.273,40.857142857142854,12.285714285714286,2.2985714285714285
2982,3163,0.22249999999985448,0.22249999999985448,0.22249999999985448,0.22249999999985448,Se2S8Li6H2,0.083,-0.637,2.124,-69.041,18,4,7.209,54.34,12.0,4.888888888888889,2.0011111111111113
2983,3164,0.3250000000000455,0.3350000000000364,0.25750000000005,0.3058333333333773,Ba2CuBr2O2,0.014,-1.92,0.0,-34.19,7,4,6.778,17.1,32.42857142857143,8.714285714285714,2.3542857142857145
2984,3165,2.11749999999995,2.11749999999995,2.11749999999995,2.11749999999995,Ba2CuBr2S2,0.051,-1.591,0.0,-29.795,7,4,6.786,21.493,34.714285714285715,8.714285714285714,2.1085714285714285
2985,3166,0.004999999999881766,0.004999999999881766,0.01499999999987267,0.008333333333212067,Se2Na6O8H2,0.014,-1.428,4.264,-88.149,18,4,6.641,43.055,11.11111111111111,4.888888888888889,2.3666666666666667
2986,3167,0.02500000000009095,0.032500000000027285,0.032500000000027285,0.030000000000048505,Te2Li6O8H2,0.0,-1.682,4.037,-95.662,18,4,5.529,35.455,10.444444444444445,4.888888888888889,2.3333333333333335
2987,3168,0.7274999999999636,0.7274999999999636,0.7274999999999636,0.7274999999999636,Ba2CuCl2O2,0.01,-2.057,0.0,-35.549,7,4,6.354,16.752,27.285714285714285,5.857142857142857,2.4114285714285715
2988,3169,2.7549999999998818,1.0750000000000455,1.537499999999909,1.7891666666666122,Te2S8Li6H2,0.044,-0.694,2.093,-69.517,18,4,6.967,56.946,14.0,4.888888888888889,1.951111111111111
2989,3170,0.004999999999881766,0.007499999999936335,0.01499999999987267,0.009166666666563591,Te2Na6O8H2,0.007,-1.487,3.936,-88.664,18,4,6.505,44.653,13.11111111111111,4.888888888888889,2.3166666666666664
2990,3171,0.25500000000010914,0.25500000000010914,0.25500000000010914,0.25500000000010914,Te2Na6S8H2,0.0,-0.633,2.41,-64.917,18,4,7.965,62.201,16.666666666666668,4.888888888888889,1.9344444444444444
2991,3172,1.2925000000000182,1.2925000000000182,1.2925000000000182,1.2925000000000182,Ba2CuO2F2,0.082,-2.571,0.0,-38.75,7,4,5.399,15.298,25.0,5.857142857142857,2.6457142857142855
2992,3173,0.5275000000001455,0.5025000000000546,0.5025000000000546,0.5108333333334182,INi3Se5Cl,0.087,-0.206,0.002,-44.475,10,4,5.094,34.758,32.4,13.4,2.43
2993,3174,0.6625000000000227,0.6750000000000682,0.5500000000000682,0.6291666666667197,Ba2I2CuO2,0.038,-1.719,0.0,-32.574,7,4,7.394,17.599,37.57142857142857,8.714285714285714,2.2685714285714282
2994,3175,1.82000000000005,1.82000000000005,1.82000000000005,1.82000000000005,Ba2I2CuS2,0.007,-1.451,0.0,-28.602,7,4,7.331,22.091,39.857142857142854,8.714285714285714,2.0228571428571427
2995,3176,1.0125000000000455,1.0125000000000455,1.0125000000000455,1.0125000000000455,Cu3SeBr5S,0.049,-0.236,0.261,-28.876,10,4,5.333,43.956,31.2,14.0,2.563
2996,3177,4.659999999999968,4.717499999999973,4.659999999999968,4.679166666666636,In3SeBr5S,0.061,-0.715,1.919,-30.924,10,4,5.848,45.486,37.2,14.6,2.527
2997,3178,0.3125,0.3524999999999636,0.10500000000001819,0.2566666666666606,Sr2CuBr2O2,0.0,-1.958,0.0,-34.148,7,4,6.369,16.0,27.285714285714285,8.714285714285714,2.371428571428571
2998,3179,0.962500000000091,0.962500000000091,0.962500000000091,0.962500000000091,IrI3Ni5BrS6,0.096,-0.235,0.0,-79.764,16,5,6.028,48.645,31.6875,10.1875,2.385625
2999,3180,61.9,61.9,61.9,61.9,HfZr3BrCl7,0.031,-1.589,0.616,-62.86,12,4,3.827,41.75,28.833333333333332,6.833333333333333,2.5308333333333333
3000,3181,9.417499999999961,9.417499999999961,9.417499999999961,9.417499999999961,AuAgBr4,0.0,-0.263,0.547,-13.887,6,3,3.122,33.171,44.333333333333336,15.0,2.7183333333333333
3001,3182,9.147499999999923,9.147499999999923,9.147499999999923,9.147499999999923,AgMnBr4,0.0,-0.566,0.258,-22.293,6,3,3.078,27.983,35.333333333333336,14.333333333333334,2.5533333333333332
3002,3183,8.232500000000073,8.232500000000073,8.232500000000073,8.232500000000073,MoAgBr4,0.04,-0.482,0.443,-23.272,6,3,3.08,29.201,38.166666666666664,14.166666666666666,2.655
3003,3184,0.5449999999999591,0.5449999999999591,0.5449999999999591,0.5449999999999591,AuInF4,0.079,-1.911,1.053,-23.704,6,3,2.35,23.448,27.333333333333332,8.666666666666666,3.3733333333333335
3004,3185,0.7024999999999864,0.7374999999999545,0.5049999999999955,0.6483333333333121,Sr2I2CuO2,0.0,-1.759,0.0,-32.54,7,4,6.901,16.545,32.42857142857143,8.714285714285714,2.2857142857142856
3005,3186,8.560000000000002,8.560000000000002,8.560000000000002,8.560000000000002,PdCdCl4,0.016,-0.8,1.183,-16.687,6,3,3.111,26.749,27.0,8.333333333333334,2.7550000000000003
3006,3187,2.5375000000000227,1.9375,1.94500000000005,2.140000000000024,MnCoBr4,0.024,-0.548,0.476,-27.57,6,3,3.104,31.365,32.0,14.0,2.545
3007,3188,1.1299999999999955,1.1299999999999955,1.1299999999999955,1.1299999999999955,HgPb2Br2O2,0.0,-0.936,2.329,-28.371,7,4,4.69,24.561,47.142857142857146,12.285714285714286,2.7800000000000002
3008,3189,2.6399999999999864,2.6399999999999864,2.6399999999999864,2.6399999999999864,Au2Ge2S6,0.074,-0.17,0.0,-41.464,10,3,4.086,46.838,31.8,8.6,2.4579999999999997
3009,3190,2.0375000000000227,2.0375000000000227,2.0375000000000227,2.0375000000000227,HgPb2Br2S2,0.032,-0.6,1.962,-23.926,7,4,5.034,32.353,49.42857142857143,12.285714285714286,2.5342857142857147
3010,3191,4.717500000000086,4.5674999999999955,4.720000000000027,4.668333333333369,YCuCl4,0.03,-1.683,2.322,-25.609,6,3,3.16,29.008,22.666666666666668,7.0,2.626666666666667
3011,3192,1.7474999999999454,1.7474999999999454,1.7474999999999454,1.7474999999999454,HgPb2Cl2O2,0.0,-1.02,2.623,-29.363,7,4,4.444,24.102,42.0,9.428571428571429,2.837142857142857
3012,3193,2.2199999999999136,2.3274999999999864,5.1049999999999045,3.217499999999935,SbTe4Ge,0.097,0.014,0.0,-21.657,6,3,4.466,24.497,48.5,15.5,2.0766666666666667
3013,3194,1.9049999999999727,1.9049999999999727,1.9049999999999727,1.9049999999999727,HgPb2O2F2,0.012,-1.496,2.966,-32.299,7,4,3.838,22.589,39.714285714285715,9.428571428571429,3.0714285714285716
3014,3195,0.88250000000005,0.88250000000005,0.88250000000005,0.88250000000005,HgPb2I2O2,0.01,-0.808,1.821,-27.262,7,4,5.123,25.485,52.285714285714285,12.285714285714286,2.6942857142857144