,ind,max_valorX,max_valorY,max_valorZ,media,formula,Ehull,HF,Gap,Energy,natoms,nspecies,thickness,uc_area,average_atomic_number,average_valence_number,average_electronegativity
3258,3441,0.5824999999999818,0.5924999999999727,0.5900000000000318,0.5883333333333288,Te2Fe3Ga,0.034,-0.15,0.0,-37.337,6,3,5.068,14.388,35.5,11.5,1.916666666666667
3259,3442,1.4474999999997635,1.4474999999997635,1.4474999999997635,1.4474999999997635,Nb2K2F12,0.0,-3.326,5.488,-95.354,16,3,8.167,28.428,14.25,6.0,3.2874999999999996
3260,3443,2.2324999999998454,2.2324999999998454,2.2324999999998454,2.2324999999998454,Nb2I12K2,0.009,-0.714,0.615,-52.259,16,3,11.463,63.536,47.25,13.5,2.2975000000000003
3261,3444,0.6549999999999727,0.6575000000000273,0.6575000000000273,0.6566666666666757,Mn3GeS2,0.079,-0.259,0.0,-43.378,6,3,4.557,14.059,23.166666666666668,7.833333333333333,1.97
3262,3445,2.1475000000000364,2.1475000000000364,2.1475000000000364,2.1475000000000364,Ta2K2Br12,0.0,-1.205,2.038,-60.372,16,3,10.264,59.174,37.75,13.5,2.51
3263,3446,2.6699999999998454,2.6699999999998454,2.6699999999998454,2.6699999999998454,Ta2K2Cl12,0.0,-1.584,2.886,-68.84,16,3,9.596,54.646,24.25,6.0,2.66
3264,3447,0.5774999999999864,0.5525000000000091,0.5800000000000409,0.5700000000000122,Fe3GeSe2,0.052,-0.179,0.0,-39.682,6,3,4.778,13.824,29.666666666666668,11.666666666666666,2.1
3265,3448,1.4524999999998727,1.4524999999998727,1.4524999999998727,1.4524999999998727,Ta2K2F12,0.0,-3.387,6.08,-95.311,16,3,8.095,28.361,18.25,6.0,3.275
3266,3449,0.375,0.32999999999992724,0.3549999999999045,0.35333333333327727,Te2Co3Ge,0.027,-0.161,0.0,-36.577,6,3,5.052,13.48,36.166666666666664,12.166666666666666,1.9749999999999999
3267,3450,0.5425000000000182,0.5425000000000182,0.5449999999999591,0.5433333333333318,Te2Fe3Ge,0.021,-0.127,0.0,-38.81,6,3,5.151,14.248,35.666666666666664,11.666666666666666,1.9500000000000002
3268,3451,1.1999999999999318,1.1999999999999318,1.1999999999999318,1.1999999999999318,Te2Mn3Ge,0.0,-0.138,0.0,-40.904,6,3,5.159,14.414,35.166666666666664,11.166666666666666,1.8100000000000003
3269,3452,0.21500000000003183,0.17499999999995453,0.20000000000004547,0.1966666666666773,Te2Ni3Ge,0.01,-0.266,0.0,-34.265,6,3,5.18,13.595,36.666666666666664,12.666666666666666,1.99
3270,3453,2.334999999999809,2.334999999999809,2.334999999999809,2.334999999999809,Ta2I12K2,0.0,-0.735,0.989,-51.57,16,3,11.272,65.77,51.25,13.5,2.285
3271,3454,61.9,61.9,61.9,61.9,Hf2IBr3,0.041,-1.029,0.713,-27.418,6,3,3.887,22.048,50.333333333333336,12.666666666666666,2.3566666666666665
3272,3455,2.36749999999995,2.36749999999995,2.36749999999995,2.36749999999995,Pb2IBr3,0.08,-0.818,1.955,-18.66,6,3,3.956,32.867,53.666666666666664,16.0,2.6999999999999997
3273,3456,0.5375000000001364,0.5375000000001364,0.5824999999999818,0.5525000000000849,Nb2Cl12Li2,0.0,-1.444,2.359,-68.954,16,3,9.052,42.177,18.25,6.0,2.6925000000000003
3274,3457,0.11749999999983629,0.11749999999983629,0.11749999999983629,0.11749999999983629,Nb2Li2F12,0.0,-3.285,5.441,-96.038,16,3,7.32,23.483,12.25,6.0,3.3075
3275,3458,0.32999999999992724,0.32999999999992724,0.32999999999992724,0.32999999999992724,Nb2I12Li2,0.028,-0.628,0.584,-52.227,16,3,11.021,57.283,45.25,13.5,2.3175000000000003
3276,3459,0.6700000000000728,0.6700000000000728,0.7200000000000273,0.6866666666667243,Ta2Cl12Li2,0.0,-1.505,2.756,-68.91,16,3,8.796,39.128,22.25,6.0,2.68
3277,3460,0.11500000000023647,0.11500000000023647,0.11500000000023647,0.11500000000023647,Ta2Li2F12,0.0,-3.347,6.136,-95.999,16,3,7.328,23.792,16.25,6.0,3.295
3278,3461,0.33999999999991815,0.33999999999991815,0.33999999999991815,0.33999999999991815,Ta2I12Li2,0.021,-0.646,0.907,-51.484,16,3,10.997,57.71,49.25,13.5,2.305
3279,3462,0.43000000000006366,0.43000000000006366,0.43000000000006366,0.43000000000006366,Nb2Br12Na2,0.0,-1.092,1.485,-59.749,16,3,10.065,51.885,32.75,13.5,2.53625
3280,3463,0.6125000000001819,0.6125000000001819,0.6125000000001819,0.6125000000001819,Nb2Na2Cl12,0.0,-1.453,2.287,-67.935,16,3,9.463,46.758,19.25,6.0,2.6862500000000002
3281,3464,0.11999999999989086,0.11999999999989086,0.11999999999989086,0.11999999999989086,Nb2Na2F12,0.0,-3.273,5.539,-94.682,16,3,7.707,26.612,13.25,6.0,3.30125
3282,3465,2.630000000000109,2.630000000000109,2.630000000000109,2.630000000000109,Nb2I12Na2,0.019,-0.648,0.552,-51.374,16,3,10.949,59.11,46.25,13.5,2.3112500000000002
3283,3466,0.4474999999999909,0.4474999999999909,0.4474999999999909,0.4474999999999909,Ta2Br12Na2,0.0,-1.136,1.929,-59.431,16,3,10.031,52.462,36.75,13.5,2.5237499999999997
3284,3467,0.11499999999978172,0.11499999999978172,0.11499999999978172,0.11499999999978172,Ta2Na2F12,0.0,-3.336,6.241,-94.668,16,3,7.733,26.897,17.25,6.0,3.28875
3285,3468,0.3424999999999727,0.3424999999999727,0.3424999999999727,0.3424999999999727,Ta2I12Na2,0.012,-0.666,0.881,-50.645,16,3,10.919,59.941,50.25,13.5,2.29875
3286,3469,4.097499999999968,4.097499999999968,4.097499999999968,4.097499999999968,Mn2SeCl3,0.075,-0.838,0.308,-33.298,6,3,2.975,23.982,22.5,8.5,2.521666666666667
3287,3470,1.392500000000041,1.392500000000041,1.392500000000041,1.392500000000041,Ni2SeS3,0.017,-0.284,0.255,-31.916,6,3,1.48,28.934,23.0,9.0,2.3516666666666666
3288,3472,0.63250000000005,0.6000000000000227,0.6025000000000773,0.6116666666667167,Fe3Se2Si,0.093,-0.268,0.0,-41.095,6,3,4.781,13.296,26.666666666666668,10.0,2.0816666666666666
3289,3473,0.43250000000000455,0.3974999999999227,0.3949999999999818,0.408333333333303,Te2Co3Si,0.077,-0.267,0.0,-38.096,6,3,5.07,12.952,33.166666666666664,10.5,1.9566666666666668
3290,3474,1.1849999999999454,1.1849999999999454,1.1849999999999454,1.1849999999999454,Te2Mn3Si,0.048,-0.22,0.0,-42.276,6,3,5.176,13.759,32.166666666666664,9.5,1.791666666666667
3291,3475,0.3025000000000091,0.22500000000002274,0.27499999999997726,0.267500000000003,Te2Ni3Si,0.051,-0.345,0.0,-35.62,6,3,5.236,12.946,33.666666666666664,11.0,1.9716666666666667
3292,3476,0.32000000000005,0.29750000000001364,0.29750000000001364,0.30500000000002575,SnTe2Ni3,0.06,-0.183,0.0,-33.308,6,3,5.06,15.057,39.666666666666664,12.666666666666666,1.9816666666666667
3293,3477,0.5100000000001046,0.45250000000010004,0.4675000000000864,0.47666666666676366,Te2TiNi3,0.023,-0.414,0.0,-37.323,6,3,4.565,14.699,35.0,11.0,1.9116666666666664
3294,3478,2.689999999999941,2.689999999999941,2.689999999999941,2.689999999999941,AuICuCl,0.05,-0.225,1.939,-10.97,4,4,3.66,19.183,44.5,11.5,2.565
3295,3479,2.097500000000082,0.31999999999993634,2.2549999999998818,1.5574999999999666,Pt4Cd2Te6,0.091,-0.323,0.114,-50.371,12,3,3.012,54.678,60.0,13.333333333333334,2.091666666666667
3296,3480,1.3875000000000455,0.9500000000000455,0.9500000000000455,1.0958333333333787,Zr4S6F2,0.066,-1.978,0.0,-80.986,12,3,3.086,44.614,22.833333333333332,5.5,2.396666666666667
3297,3481,1.0950000000000273,1.0950000000000273,1.0950000000000273,1.0950000000000273,AuPdSeCl,0.071,-0.264,0.744,-13.275,4,4,3.043,18.967,44.0,11.0,2.6125
3298,3482,0.7599999999999909,0.2175000000002001,0.712500000000091,0.5633333333334273,Pt4Hg2Se6,0.063,-0.286,0.153,-51.521,12,3,3.504,48.839,56.333333333333336,13.333333333333334,2.368333333333333
3299,3483,0.9350000000001728,0.4800000000000182,0.9725000000000819,0.7958333333334243,Pt4Hg2Te6,0.073,-0.288,0.114,-49.876,12,3,3.169,54.883,65.33333333333333,13.333333333333334,2.143333333333333
3300,3484,0.6800000000000637,0.3224999999999909,0.5475000000001273,0.5166666666667273,In2Ni4Se6,0.092,-0.286,0.565,-58.842,12,3,3.811,43.238,34.5,13.5,2.2083333333333335
3301,3485,1.615000000000009,0.5450000000000728,1.2550000000001091,1.138333333333397,In2Te6Ni4,0.056,-0.196,0.287,-56.097,12,3,3.223,50.204,43.5,13.5,1.9833333333333334
3302,3486,0.5174999999999272,0.1675000000000182,0.4699999999997999,0.38499999999991513,Pd4In2Se6,0.088,-0.34,0.834,-45.777,12,3,3.918,47.91,40.5,13.5,2.305
3303,3487,1.2899999999999636,0.15249999999991815,1.2274999999999636,0.8899999999999485,Pd4In2Te6,0.063,-0.327,0.391,-43.961,12,3,3.393,55.242,49.5,13.5,2.08
3304,3488,2.5124999999999886,2.534999999999968,2.527499999999975,2.5249999999999773,BiTeCuSe,0.077,-0.16,0.0,-15.679,4,4,3.885,16.23,49.5,14.5,2.1425
3305,3489,0.4249999999999545,0.4174999999997908,0.4174999999997908,0.4199999999998454,Pt4In2S6,0.083,-0.425,1.53,-60.513,12,3,4.169,44.559,42.166666666666664,8.5,2.3466666666666667
3306,3490,0.37249999999994543,0.08249999999998181,0.3350000000000364,0.2633333333333212,Pt4In2Se6,0.041,-0.421,1.126,-56.892,12,3,3.802,48.863,51.166666666666664,13.5,2.3316666666666666
3307,3491,1.3400000000001455,0.3250000000000455,1.427500000000009,1.0308333333334,Pt4In2Te6,0.027,-0.411,0.666,-55.107,12,3,3.338,55.48,60.166666666666664,13.5,2.106666666666667
3308,3492,61.9,61.9,61.9,61.9,Nb2Co4Se6,0.033,-0.518,0.0,-80.685,12,3,3.434,37.453,32.833333333333336,11.833333333333334,2.168333333333333
3309,3493,1.6050000000000182,1.5850000000000364,1.5850000000000364,1.591666666666697,Nb2Te6Co4,0.028,-0.308,0.0,-76.496,12,3,3.869,39.796,41.833333333333336,11.833333333333334,1.9433333333333334
3310,3494,1.570999999999998,1.570999999999998,1.570999999999998,1.570999999999998,CdBrOH,0.053,-0.968,1.645,-14.831,4,4,3.665,12.497,23.0,9.0,2.5725
3311,3495,1.6700000000000728,1.6700000000000728,1.6700000000000728,1.6700000000000728,Nb2Fe4Se6,0.025,-0.513,0.0,-83.868,12,3,3.612,37.764,32.5,11.5,2.151666666666667
3312,3496,1.9075000000000273,1.9075000000000273,1.9075000000000273,1.9075000000000273,Nb2Te6Fe4,0.012,-0.27,0.0,-79.291,12,3,4.003,39.965,41.5,11.5,1.9266666666666667
3313,3497,61.9,61.9,61.9,61.9,Nb2Ni4S6,0.047,-0.689,0.0,-82.373,12,3,3.12,36.286,24.166666666666668,7.166666666666667,2.1933333333333334
3314,3498,1.740000000000009,1.7100000000000364,1.7100000000000364,1.7200000000000273,Nb2Ni4Se6,0.0,-0.59,0.0,-77.618,12,3,3.557,37.544,33.166666666666664,12.166666666666666,2.1783333333333332
3315,3499,1.884999999999991,1.8724999999999454,1.8724999999999454,1.8766666666666272,Nb2Te6Ni4,0.0,-0.414,0.0,-73.834,12,3,3.907,39.971,42.166666666666664,12.166666666666666,1.9533333333333334
3316,3500,1.3107499999999845,1.3107499999999845,1.3107499999999845,1.3107499999999845,CdBrSH,0.051,-0.522,2.762,-12.003,4,4,4.152,14.91,25.0,9.0,2.3575
3317,3501,2.7625000000000455,2.7625000000000455,2.7625000000000455,2.7625000000000455,Nb2Pd4Se6,0.063,-0.551,0.0,-63.446,12,3,3.717,41.012,39.166666666666664,12.166666666666666,2.275
3318,3502,3.0175000000001546,3.0175000000001546,3.0175000000001546,3.0175000000001546,Nb2Pd4Te6,0.012,-0.457,0.0,-60.642,12,3,4.048,43.215,48.166666666666664,12.166666666666666,2.0500000000000003
3319,3503,0.43499999999994543,0.23499999999989996,0.26749999999992724,0.3124999999999242,RuBrClO,0.017,-0.701,0.0,-20.762,4,4,3.353,13.467,26.0,9.5,2.94
3320,3504,61.9,61.9,61.9,61.9,Hf4Se6S2,0.0,-1.414,0.536,-76.042,12,3,3.195,48.485,43.666666666666664,10.333333333333334,2.138333333333333
3321,3505,3.052500000000009,3.052500000000009,3.052500000000009,3.052500000000009,TeCuGeBr,0.078,-0.211,0.652,-13.826,4,4,3.612,15.853,37.0,14.5,2.2424999999999997
3322,3506,0.6475000000000364,0.6475000000000364,0.6475000000000364,0.6475000000000364,Ni4Se6S2,0.016,-0.258,0.137,-61.134,12,3,2.56,42.232,29.0,12.333333333333334,2.3416666666666663
3323,3507,1.3675000000000637,1.3599999999999,1.3999999999998636,1.3758333333332757,Ir4Se2S6,0.064,-0.372,0.722,-72.997,12,3,2.888,41.884,39.333333333333336,8.666666666666666,2.4483333333333337
3324,3508,1.5874999999998636,1.5874999999998636,1.5874999999998636,1.5874999999998636,Ta2Co4Se6,0.053,-0.493,0.0,-79.359,12,3,3.462,37.273,38.166666666666664,11.833333333333334,2.151666666666667
3325,3509,1.9674999999999727,1.9674999999999727,1.9674999999999727,1.9674999999999727,Ta2Te6Fe4,0.02,-0.234,0.0,-77.832,12,3,4.011,39.753,46.833333333333336,11.5,1.9100000000000001
3326,3510,61.9,61.9,61.9,61.9,Ta2Ni4S6,0.045,-0.676,0.0,-81.2,12,3,3.245,35.978,29.5,7.166666666666667,2.1766666666666667
3327,3511,1.9024999999999181,1.8924999999999272,1.8924999999999272,1.8958333333332575,Ta2Ni4Se6,0.004,-0.572,0.0,-76.383,12,3,3.596,37.312,38.5,12.166666666666666,2.1616666666666666
3328,3512,2.0149999999998727,2.0149999999998727,2.0149999999998727,2.0149999999998727,Ta2Te6Ni4,0.001,-0.382,0.0,-72.441,12,3,3.911,39.837,47.5,12.166666666666666,1.9366666666666668
3329,3513,3.1525000000001455,3.1525000000001455,3.1525000000001455,3.1525000000001455,Ta2Pd4Te6,0.011,-0.427,0.0,-59.269,12,3,4.038,43.111,53.5,12.166666666666666,2.0333333333333337
3330,3514,0.20249999999987267,0.19000000000005457,0.19249999999988177,0.19499999999993634,Tl2Ni4S6,0.002,-0.374,0.844,-62.943,12,3,4.545,38.589,30.833333333333332,8.5,2.2666666666666666
3331,3515,0.5099999999999909,0.3224999999999909,0.45499999999992724,0.42916666666663633,Tl2Ni4Se6,0.0,-0.32,0.54,-58.719,12,3,4.162,43.212,39.833333333333336,13.5,2.2516666666666665
3332,3516,1.150000000000091,0.39000000000010004,0.9950000000001182,0.8450000000001031,Tl2Te6Ni4,0.012,-0.214,0.273,-55.782,12,3,3.622,50.386,48.833333333333336,13.5,2.026666666666667
3333,3517,0.29750000000012733,0.290000000000191,0.29500000000007276,0.294166666666797,Tl2Pd4S6,0.0,-0.362,1.305,-49.091,12,3,4.578,43.2,36.833333333333336,8.5,2.3633333333333333
3334,3518,0.272499999999809,0.1374999999998181,0.24749999999994543,0.21916666666652418,Tl2Pd4Se6,0.03,-0.376,0.834,-45.682,12,3,4.245,47.823,45.833333333333336,13.5,2.348333333333333
3335,3519,0.7474999999999454,0.11249999999995453,0.9024999999999181,0.5874999999999394,Tl2Pd4Te6,0.0,-0.354,0.377,-43.757,12,3,3.774,55.305,54.833333333333336,13.5,2.1233333333333335
3336,3520,0.25,0.23749999999995453,0.2400000000000091,0.24249999999998786,Pt4Tl2S6,0.025,-0.459,1.253,-60.392,12,3,4.479,44.392,47.5,8.5,2.39
3337,3521,0.20000000000004547,0.13750000000004547,0.18499999999994543,0.1741666666666788,Pt4Tl2Se6,0.02,-0.445,1.132,-56.644,12,3,4.157,48.788,56.5,13.5,2.375
3338,3522,0.6900000000000546,0.10750000000007276,0.875,0.5575000000000424,Pt4Tl2Te6,0.032,-0.423,0.663,-54.715,12,3,3.747,55.524,65.5,13.5,2.15
3339,3523,0.36750000000006366,0.3875000000000455,0.36750000000006366,0.37416666666672427,Cs2C4O6H6,0.094,-1.043,4.473,-108.003,18,4,9.556,26.732,10.444444444444445,3.3333333333333335,2.5344444444444445
3340,3524,0.3650000000000091,0.37999999999999545,0.3650000000000091,0.37000000000000455,Cs2S6C4H6,0.067,-0.276,2.243,-87.929,18,4,10.453,37.318,13.11111111111111,3.3333333333333335,2.247777777777778
3341,3525,0.36000000000012733,0.37000000000011823,0.36000000000012733,0.36333333333345763,K2C4O6H6,0.108,-1.046,4.672,-108.838,18,4,9.321,22.238,6.444444444444445,3.3333333333333335,2.5377777777777784
3342,3526,1.1925000000001091,1.1925000000001091,1.1925000000001091,1.1925000000001091,Rb2C4O6F6,0.01,-1.803,5.558,-111.415,18,4,9.583,27.268,11.11111111111111,5.333333333333333,3.131111111111111
3343,3527,0.3650000000000091,0.3774999999999409,0.3650000000000091,0.36916666666665304,Rb2S6C4H6,0.069,-0.263,2.231,-87.853,18,4,10.613,33.987,11.11111111111111,3.3333333333333335,2.2511111111111113
3344,3528,1.5612500000000011,1.5612500000000011,1.5612500000000011,1.5612500000000011,CdClOH,0.033,-1.071,2.517,-15.445,4,4,3.529,11.971,18.5,6.5,2.6224999999999996
3345,3529,1.3097500000000082,1.3097500000000082,1.3097500000000082,1.3097500000000082,CdSClH,0.065,-0.588,2.774,-12.468,4,4,4.0,14.463,20.5,6.5,2.4074999999999998
3346,3530,1.5500000000000114,1.5500000000000114,1.5500000000000114,1.5500000000000114,CdOFH,0.046,-1.505,2.702,-16.981,4,4,3.076,10.885,16.5,6.5,2.8274999999999997
3347,3531,1.3120000000000118,1.3120000000000118,1.3120000000000118,1.3120000000000118,CdISH,0.06,-0.411,1.984,-11.451,4,4,4.329,15.76,29.5,9.0,2.2824999999999998
3348,3532,1.5124999999999886,1.5124999999999886,1.5124999999999886,1.5124999999999886,IVClO,0.017,-1.377,0.703,-22.418,4,4,3.539,14.179,25.25,8.75,2.7225
3349,3533,2.3274999999999864,2.3274999999999864,2.3274999999999864,2.3274999999999864,TeMnFeSe,0.08,-0.171,0.0,-26.13,4,4,3.433,13.05,34.25,11.75,2.0075000000000003
3350,3534,0.20999999999997954,0.36000000000001364,1.0575000000000045,0.5424999999999992,PbGeSeS,0.071,-0.359,0.846,-17.27,4,4,2.763,17.682,41.0,12.5,2.3674999999999997
3351,3535,0.0049999999999954525,0.012499999999988631,0.009999999999990905,0.00916666666665833,SrIOH,0.087,-1.743,1.203,-18.575,4,4,4.095,15.739,25.0,6.5,2.3125
3352,3536,0.8199999999999363,0.8199999999999363,0.8199999999999363,0.8199999999999363,Mn8Se2Br6S4,0.074,-0.544,0.0,-121.398,20,4,6.172,49.104,27.1,10.7,2.279
3353,3537,1.5675000000001091,1.5675000000001091,1.5675000000001091,1.5675000000001091,SnI3Cu5As2S4Cl5,0.089,-0.345,0.0,-68.338,20,6,6.908,64.681,28.45,10.45,2.496
3354,3538,0.9200000000000728,0.9200000000000728,0.9200000000000728,0.9200000000000728,Zr3PdBr6N2,0.1,-1.297,1.622,-67.8,12,4,6.777,37.528,32.5,11.166666666666666,2.5025
3355,3539,1.652499999999975,1.652499999999975,1.652499999999975,1.652499999999975,ZrNiSeS,0.052,-1.057,0.789,-26.44,4,4,3.179,13.639,29.5,9.0,2.0925000000000002
3356,3540,1.9099999999998545,1.9099999999998545,1.9099999999998545,1.9099999999998545,Cu6SeBr2S3Cl6,0.047,-0.338,0.271,-57.743,18,5,6.148,54.504,23.77777777777778,9.777777777777779,2.587222222222222
3357,3541,4.0049999999999955,4.0049999999999955,4.0049999999999955,4.0049999999999955,AgCo2S4,0.025,-0.316,0.0,-37.824,7,3,9.603,9.459,23.571428571428573,7.571428571428571,2.287142857142857
3358,3542,1.580000000000041,1.580000000000041,1.580000000000041,1.580000000000041,AgNi2O4,0.0,-0.625,0.0,-42.208,7,3,8.141,7.292,19.285714285714285,7.857142857142857,2.787142857142857
3359,3543,1.6499999999999773,1.6499999999999773,1.6499999999999773,1.6499999999999773,Pd2AgO4,0.029,-0.332,0.0,-33.298,7,3,8.268,8.572,24.428571428571427,7.857142857142857,2.87
3360,3545,0.2925000000000182,0.2599999999999909,0.2599999999999909,0.2708333333333333,AuCo2S4,0.012,-0.334,0.0,-38.238,7,3,9.472,9.49,28.142857142857142,7.571428571428571,2.3742857142857146
3361,3548,0.44000000000005457,0.3925000000000409,0.42250000000001364,0.4183333333333697,AuNi2O4,0.006,-0.602,0.0,-42.335,7,3,8.15,7.325,23.857142857142858,7.857142857142857,2.874285714285714
3362,3550,1.2824999999999136,1.2824999999999136,1.2824999999999136,1.2824999999999136,AuPd2O4,0.038,-0.304,0.0,-33.398,7,3,8.225,8.61,29.0,7.857142857142857,2.957142857142857
3363,3552,1.4724999999999682,1.5499999999999545,1.4724999999999682,1.4983333333332969,AuTl2Se4,0.046,-0.144,0.0,-23.068,7,3,3.828,32.65,53.857142857142854,14.428571428571429,2.402857142857143
3364,3554,17.377499999999998,17.377499999999998,17.377499999999998,17.377499999999998,CdGa2S4,0.079,-0.621,0.496,-27.394,7,3,9.35,12.635,24.857142857142858,8.857142857142858,2.232857142857143
3365,3557,12.724999999999966,12.724999999999966,12.724999999999966,12.724999999999966,CdIn2S4,0.051,-0.582,0.597,-26.837,7,3,9.757,13.906,30.0,8.857142857142858,2.224285714285714
3366,3558,15.5,15.5,15.5,15.5,CdIn2Se4,0.052,-0.547,0.179,-24.21,7,3,10.312,15.185,40.285714285714285,14.571428571428571,2.207142857142857
3367,3560,0.28750000000002274,0.2524999999999409,0.23249999999995907,0.25749999999997425,CoAl2S4,0.098,-0.808,0.0,-37.67,7,3,8.779,11.087,16.714285714285715,5.571428571428571,2.202857142857143
3368,3562,0.6399999999999864,0.6399999999999864,0.6875,0.6558333333333243,CoSe4Al2,0.074,-0.619,0.0,-33.966,7,3,9.353,12.439,27.0,11.285714285714286,2.1857142857142855
3369,3563,0.5575000000000045,0.5325000000000273,0.5099999999999909,0.5333333333333409,CoSe4Al2,0.075,-0.618,0.0,-33.963,7,3,9.411,12.331,27.0,11.285714285714286,2.1857142857142855
3370,3566,61.9,61.9,61.9,61.9,Cr2CoS4,0.085,-0.579,0.0,-47.408,7,3,8.131,9.979,19.857142857142858,6.428571428571429,2.217142857142857
3371,3568,1.2775000000000318,1.2775000000000318,1.2775000000000318,1.2775000000000318,Te4Cr2Co,0.051,-0.171,0.0,-41.064,7,3,8.443,13.98,40.42857142857143,12.142857142857142,1.942857142857143
3372,3570,0.2799999999999727,0.3224999999999909,0.2625000000000455,0.2883333333333364,CoGa2S4,0.045,-0.569,0.0,-34.33,7,3,8.935,11.307,21.857142857142858,8.428571428571429,2.2600000000000002