,ind,max_valorX,max_valorY,max_valorZ,media,formula,Ehull,HF,Gap,Energy,natoms,nspecies,thickness,uc_area,average_atomic_number,average_valence_number,average_electronegativity
2772,2948,3.6625000000000227,3.5874999999999773,3.5924999999999727,3.6141666666666574,Mg2P2S6,0.0,-0.773,2.796,-46.164,10,3,3.283,32.429,15.0,5.0,2.248
2773,2949,0.8924999999999272,0.8924999999999272,0.8924999999999272,0.8924999999999272,Pd2SbSe2,0.093,-0.305,0.0,-20.536,5,3,5.11,13.91,42.2,13.4,2.31
2774,2950,0.9874999999999545,0.9874999999999545,0.9874999999999545,0.9874999999999545,Pd2SbTe2,0.029,-0.36,0.0,-20.254,5,3,5.398,14.701,49.4,13.4,2.13
2775,2951,0.32749999999998636,0.28749999999990905,0.30499999999995,0.30666666666661513,Se6Mg2P2,0.0,-0.616,2.049,-41.017,10,3,3.469,36.084,25.8,11.0,2.2299999999999995
2776,2952,1.0024999999999977,1.0024999999999977,1.0024999999999977,1.0024999999999977,Zr2SbSe2,0.111,-1.019,0.0,-31.27,5,3,6.702,13.225,39.8,11.0,1.9619999999999997
2777,2953,0.7199999999999704,0.7199999999999704,0.8199999999999932,0.7533333333333113,SbTe2Ti2,0.07,-0.557,0.0,-26.979,5,3,6.709,12.83,39.8,11.0,1.866
2778,2954,1.3450000000000273,1.3450000000000273,1.3450000000000273,1.3450000000000273,Zr2SbTe2,0.051,-0.781,0.0,-29.526,5,3,6.992,14.098,47.0,11.0,1.782
2779,2955,0.24250000000006366,0.19249999999999545,0.25,0.22833333333335304,Tl2I6Mg2,0.071,-0.849,2.652,-25.589,10,3,6.466,51.597,50.4,13.2,2.266
2780,2956,1.482499999999959,1.4774999999999636,1.4774999999999636,1.4791666666666288,Nb2Mn2Se6,0.031,-0.639,0.0,-67.371,10,3,3.959,33.22,33.6,12.0,2.16
2781,2957,1.6299999999999955,1.5824999999999818,1.5824999999999818,1.5983333333333196,Nb2Te6Mn2,0.049,-0.288,0.0,-62.194,10,3,4.616,36.097,44.4,12.0,1.8900000000000001
2782,2958,2.035000000000025,2.035000000000025,2.035000000000025,2.035000000000025,Te2As2Se,0.0,-0.059,0.583,-19.516,5,3,6.631,13.707,40.8,15.6,2.222
2783,2959,0.6399999999999864,0.8249999999999318,0.6449999999999818,0.7033333333333,Mn2P2S6,0.031,-0.372,0.108,-58.356,10,3,3.243,32.122,17.6,6.0,2.2960000000000003
2784,2960,3.212500000000034,3.212500000000034,3.212500000000034,3.212500000000034,Bi2SeS2,0.003,-0.376,0.389,-22.87,5,3,6.745,14.493,46.4,11.6,2.35
2785,2961,2.6399999999999864,2.6399999999999864,2.6399999999999864,2.6399999999999864,Bi2SeS2,0.024,-0.355,0.412,-22.763,5,3,6.8,14.575,46.4,11.6,2.35
2786,2962,5.3700000000000045,3.0249999999999773,3.0249999999999773,3.806666666666653,Bi2Te2Se,0.0,-0.297,0.121,-20.727,5,3,7.269,16.278,60.8,15.6,2.158
2787,2963,0.6200000000000045,0.6200000000000045,0.6200000000000045,0.6200000000000045,Mn2Se6P2,0.074,-0.241,0.1,-53.467,10,3,3.401,35.397,28.4,12.0,2.2779999999999996
2788,2964,0.9825000000000728,0.9825000000000728,0.9825000000000728,0.9825000000000728,Mn2SeCl2,0.048,-0.729,0.098,-30.13,5,3,5.933,12.45,23.6,8.8,2.394
2789,2965,1.4950000000000045,0.9774999999999636,0.9774999999999636,1.1499999999999773,I2Cu2Se,0.068,-0.089,0.0,-14.239,5,3,6.077,13.687,39.6,14.4,2.3340000000000005
2790,2966,0.3300000000000409,0.2949999999999591,0.3125,0.3125,I2Mn2Se,0.052,-0.341,0.156,-27.577,5,3,6.465,14.057,38.0,12.8,2.194
2791,2967,0.9275000000000091,0.9225000000000136,0.9225000000000136,0.9241666666666788,Ta2Mn2S6,0.065,-0.833,0.0,-71.862,10,3,3.634,31.494,29.2,6.0,2.158
2792,2968,1.6274999999999409,1.6274999999999409,1.6274999999999409,1.6274999999999409,Ta2Mn2Se6,0.022,-0.621,0.0,-66.178,10,3,3.976,33.265,40.0,12.0,2.1399999999999997
2793,2969,1.7200000000000273,1.7099999999999227,1.7099999999999227,1.713333333333291,Ta2Te6Mn2,0.055,-0.243,0.0,-60.723,10,3,4.658,36.09,50.8,12.0,1.8700000000000003
2794,2970,2.044999999999959,2.044999999999959,2.044999999999959,2.044999999999959,Sb2Te2Se,0.006,-0.184,0.4,-19.625,5,3,7.087,15.472,48.0,15.6,2.1700000000000004
2795,2971,2.5925000000000296,2.5925000000000296,2.5925000000000296,2.5925000000000296,SnBr2S2,0.086,-0.393,0.829,-17.345,5,3,4.923,19.224,30.4,12.0,2.6079999999999997
2796,2972,1.3349999999999227,1.3424999999999727,1.349999999999909,1.3424999999999347,Rb2N2O6,0.0,-1.055,3.199,-59.817,10,3,4.571,26.614,13.6,4.8,2.836
2797,2973,0.15999999999996817,0.1449999999999818,0.13250000000005002,0.14583333333333334,Sr2I6Na2,0.055,-1.509,3.815,-29.921,10,3,4.394,61.688,41.6,10.8,1.972
2798,2974,1.3724999999999454,1.2425000000000637,1.25,1.2883333333333364,Nb2Te6Ni2,0.043,-0.375,0.0,-58.129,10,3,4.481,36.279,45.0,12.6,1.9620000000000002
2799,2975,1.1875,1.1875,1.4674999999999727,1.2808333333333242,Nb2P2S6,0.192,-0.519,0.508,-61.038,10,3,3.376,29.404,20.8,5.6,2.306
2800,2976,0.13249999999999318,0.13249999999999318,0.13249999999999318,0.13249999999999318,SrSe2H2,0.031,-0.797,3.192,-19.273,5,3,5.709,21.03,21.6,7.2,2.09
2801,2977,5.319999999999993,3.295000000000016,3.295000000000016,3.970000000000008,Bi2TeS2,0.062,-0.267,0.021,-22.046,5,3,7.04,15.212,50.0,11.6,2.2600000000000002
2802,2978,3.2975000000000136,3.2975000000000136,3.2975000000000136,3.2975000000000136,Bi2TeSe2,0.034,-0.31,0.111,-21.066,5,3,7.294,15.779,57.2,15.6,2.248
2803,2979,2.1825000000000045,2.1825000000000045,2.7625000000000455,2.3758333333333517,TeSc2Br2,0.053,-1.375,0.0,-22.57,5,3,6.535,14.028,32.8,11.2,2.148
2804,2981,1.6875,1.6949999999999932,1.6875,1.6899999999999977,TeI2Sc2,0.0,-1.167,0.0,-21.315,5,3,6.76,15.103,40.0,11.2,2.028
2805,2982,4.400000000000091,4.400000000000091,4.400000000000091,4.400000000000091,Ni2P2S6,0.054,-0.227,0.028,-51.958,10,3,3.058,29.574,18.2,6.6,2.368
2806,2983,0.7000000000000455,0.3224999999999909,0.3875000000000455,0.4700000000000273,Ni2Se6P2,0.065,-0.133,0.0,-47.449,10,3,3.144,33.166,29.0,12.6,2.3499999999999996
2807,2984,2.2549999999999955,2.2549999999999955,2.2549999999999955,2.2549999999999955,Sb2TeSe2,0.035,-0.191,0.573,-19.938,5,3,7.155,14.901,44.4,15.6,2.26
2808,2985,0.6599999999998545,0.6899999999998272,0.4275000000000091,0.5924999999998969,Ni2Se2O6,0.0,-0.737,0.31,-59.572,10,3,4.059,24.082,17.2,8.8,2.9560000000000004
2809,2986,0.4800000000000182,0.5225000000000364,0.7649999999998727,0.5891666666666424,Ni2Se2O6,0.002,-0.734,0.555,-59.548,10,3,3.854,23.853,17.2,8.8,2.9560000000000004
2810,2987,1.2774999999999181,1.1949999999999363,1.1949999999999363,1.2224999999999302,Ta2Ni2Se6,0.028,-0.648,0.0,-61.507,10,3,3.957,34.442,40.6,12.6,2.2119999999999997
2811,2988,1.2675000000001546,1.2274999999999636,1.2274999999999636,1.2408333333333605,Ta2Te6Ni2,0.034,-0.341,0.0,-56.771,10,3,4.427,37.535,51.4,12.6,1.9420000000000002
2812,2989,0.6099999999999,0.6150000000000091,0.36999999999989086,0.5316666666666,Te2Ni2O6,0.057,-0.863,0.217,-60.281,10,3,4.306,24.004,20.8,8.8,2.866
2813,2990,1.5074999999999363,1.5049999999998818,1.5074999999999363,1.5066666666665849,Te2Ni2S6,0.063,-0.118,0.61,-46.55,10,3,5.223,26.943,25.6,8.8,2.35
2814,2991,0.5049999999999955,0.5049999999999955,0.5049999999999955,0.5049999999999955,ZnO2H2,0.086,-1.161,2.333,-23.886,5,3,3.994,9.068,9.6,5.2,2.586
2815,2992,61.9,61.9,61.9,61.9,Hf2Br4S4,0.0,-1.192,1.786,-49.587,10,3,3.993,41.224,34.8,10.0,2.476
2816,2993,61.9,61.9,61.9,61.9,Hf2Se4Br4,0.0,-1.113,1.572,-46.411,10,3,4.302,42.691,42.0,14.0,2.464
2817,2994,61.9,61.9,61.9,61.9,Hf2Te4Br4,0.0,-0.909,1.043,-43.262,10,3,4.744,45.622,49.2,14.0,2.284
2818,2995,61.9,61.9,61.9,61.9,Hf2S4Cl4,0.01,-1.393,1.823,-52.392,10,3,3.989,38.338,27.6,6.0,2.556
2819,2996,61.9,61.9,61.9,61.9,Hf2Se4Cl4,0.021,-1.309,1.623,-49.175,10,3,4.304,39.843,34.8,10.0,2.5439999999999996
2820,2997,61.9,61.9,61.9,61.9,Hf2I4Se4,0.004,-0.87,1.386,-43.559,10,3,4.311,47.263,49.2,14.0,2.344
2821,2998,61.9,61.9,61.9,61.9,Hf2Te4I4,0.051,-0.677,0.947,-40.519,10,3,4.753,49.986,56.4,14.0,2.164
2822,2999,0.7624999999998181,0.7624999999998181,0.7624999999998181,0.7624999999998181,Mo2Br4O4,0.0,-1.384,1.424,-63.082,10,3,4.835,30.945,25.6,10.4,2.992
2823,3000,1.7999999999999545,1.7999999999999545,1.7999999999999545,1.7999999999999545,Mo2Cl4O4,0.0,-1.545,2.369,-65.487,10,3,4.472,31.492,18.4,6.4,3.072
2824,3001,1.4925000000000637,1.4624999999998636,1.4624999999998636,1.4724999999999302,Mo2I4O4,0.005,-1.2,0.0,-60.812,10,3,5.399,30.781,32.8,10.4,2.872
2825,3002,3.6499999999999773,3.6499999999999773,3.6499999999999773,3.6499999999999773,Nb2Br4S4,0.0,-0.903,1.556,-52.334,10,3,4.066,38.385,28.6,10.2,2.536
2826,3003,1.0974999999998545,0.9149999999999636,1.0449999999998454,1.0191666666665544,Nb2Se4Br4,0.0,-0.804,1.096,-48.958,10,3,4.371,39.882,35.8,14.2,2.524
2827,3004,1.2224999999998545,1.0874999999998636,1.162499999999909,1.1574999999998756,Nb2Te4Br4,0.046,-0.601,0.645,-45.824,10,3,4.742,42.503,43.0,14.2,2.3440000000000003
2828,3005,4.8250000000000455,4.8250000000000455,4.8250000000000455,4.8250000000000455,Pd2P2S6,0.122,-0.204,0.014,-44.874,10,3,3.149,31.295,21.8,6.6,2.426
2829,3006,0.5325000000000273,0.5225000000000364,0.8999999999998636,0.6516666666666424,Nb2S4Cl4,0.0,-1.075,1.61,-54.858,10,3,4.066,35.51,21.4,6.2,2.616
2830,3007,0.9349999999999454,0.9549999999999272,0.9375,0.9424999999999576,Nb2Se4Cl4,0.0,-0.97,1.08,-51.422,10,3,4.367,36.922,28.6,10.2,2.604
2831,3008,1.240000000000009,1.1400000000001,1.197499999999991,1.1925000000000334,Nb2Te4Cl4,0.087,-0.758,0.596,-48.194,10,3,4.685,39.364,35.8,10.2,2.4240000000000004
2832,3009,6.697499999999991,6.697499999999991,6.697499999999991,6.697499999999991,Pd2Se6P2,0.091,-0.154,0.0,-40.808,10,3,3.244,34.989,32.6,12.6,2.408
2833,3010,0.47250000000008185,0.3200000000001637,0.37000000000011823,0.38750000000012125,Nb2Co4Se4,0.046,-0.497,0.0,-72.472,10,3,4.896,21.851,32.6,11.0,2.0919999999999996
2834,3011,1.6750000000000682,1.3725000000000591,1.6000000000000227,1.5491666666667168,Rh2P2S6,0.02,-0.346,0.787,-52.95,10,3,2.931,32.126,21.6,6.4,2.442
2835,3012,0.3949999999999818,0.37750000000005457,0.3875000000000455,0.38666666666669397,Nb2S4F4,0.0,-1.951,1.617,-62.818,10,3,4.072,28.072,18.2,6.2,2.944
2836,3013,0.8675000000000637,0.7899999999999636,0.8050000000000637,0.8208333333333636,Nb2Se4F4,0.055,-1.833,1.119,-59.258,10,3,4.325,29.17,25.4,10.2,2.932
2837,3014,1.072499999999991,1.0450000000000728,1.3675000000000637,1.161666666666709,Nb2I4S4,0.0,-0.697,1.432,-49.852,10,3,4.074,42.703,35.8,10.2,2.416
2838,3015,1.8600000000000136,1.7174999999999727,1.802500000000009,1.793333333333332,Nb2I4Se4,0.0,-0.605,1.06,-46.549,10,3,4.38,44.263,43.0,14.2,2.404
2839,3016,1.2100000000000364,1.07000000000005,1.1550000000000864,1.1450000000000575,Nb2Te4I4,0.023,-0.414,0.649,-43.526,10,3,4.772,46.932,50.2,14.2,2.224
2840,3017,1.8500000000000227,1.8500000000000227,1.8500000000000227,1.8500000000000227,Nb2Se4S4,0.089,-0.561,0.0,-56.51,10,3,4.072,33.999,28.2,9.8,2.372
2841,3018,2.302500000000009,2.324999999999932,2.302500000000009,2.309999999999983,Sc2Br4S4,0.073,-1.206,1.533,-44.031,10,3,3.413,45.121,24.6,9.8,2.4880000000000004
2842,3019,2.5399999999999636,1.8299999999999272,1.8774999999999409,2.082499999999944,Sc2Se4Br4,0.07,-1.167,1.277,-41.261,10,3,3.745,46.744,31.8,13.8,2.476
2843,3020,2.324999999999932,1.115000000000009,1.1675000000000182,1.5358333333333196,Sc2S4Cl4,0.074,-1.407,1.531,-46.843,10,3,3.399,41.999,17.4,5.8,2.568
2844,3021,1.544999999999959,1.6374999999999318,2.072499999999991,1.7516666666666272,Sc2P2S6,0.096,-0.979,0.827,-54.311,10,3,3.068,35.424,16.8,5.2,2.258
2845,3022,1.3150000000000546,1.3150000000000546,1.3150000000000546,1.3150000000000546,I4Sc2S4,0.069,-0.951,0.981,-41.051,10,3,3.699,50.103,31.8,9.8,2.368
2846,3023,0.9424999999999955,0.9424999999999955,0.9424999999999955,0.9424999999999955,I4Sc2Se4,0.064,-0.914,0.984,-38.309,10,3,3.739,51.82,39.0,13.8,2.3560000000000003
2847,3024,0.5425000000000182,0.5299999999999727,0.8899999999999864,0.6541666666666591,Ta2Br4S4,0.034,-0.851,1.529,-50.791,10,3,4.09,38.234,35.0,10.2,2.516
2848,3025,1.2899999999999636,1.1024999999999636,1.1024999999999636,1.1649999999999636,Ta2Se4Br4,0.041,-0.745,0.99,-47.349,10,3,4.399,39.662,42.2,14.2,2.504
2849,3026,1.2474999999999454,1.134999999999991,1.1949999999999363,1.1924999999999575,Ta2Te4Br4,0.075,-0.529,0.552,-44.081,10,3,4.775,42.151,49.4,14.2,2.3240000000000003
2850,3027,2.5149999999999864,1.7649999999999864,2.0125000000000455,2.097500000000006,Sc2Se6P2,0.003,-0.833,0.684,-49.276,10,3,3.212,38.706,27.6,11.2,2.2399999999999998
2851,3028,0.6175000000000637,0.6124999999999545,0.8550000000000182,0.6950000000000122,Ta2S4Cl4,0.017,-1.033,1.55,-53.415,10,3,4.09,35.363,27.8,6.2,2.596
2852,3029,1.1499999999998636,0.974999999999909,1.0850000000000364,1.0699999999999363,Ta2Se4Cl4,0.051,-0.921,0.939,-49.911,10,3,4.395,36.714,35.0,10.2,2.584
2853,3030,0.46499999999991815,0.3025000000000091,0.3674999999998363,0.37833333333325453,Ta2Co4Se4,0.011,-0.512,0.0,-71.599,10,3,4.92,21.68,39.0,11.0,2.072
2854,3031,0.4149999999999636,0.40249999999991815,0.41249999999990905,0.40999999999993025,Ta2S4F4,0.058,-1.925,1.42,-61.543,10,3,4.099,28.063,24.6,6.2,2.9240000000000004
2855,3032,1.205000000000041,1.1924999999999955,1.5249999999999773,1.3075000000000045,Ta2I4S4,0.02,-0.633,1.429,-48.185,10,3,4.093,42.567,42.2,10.2,2.396
2856,3033,1.9699999999999136,1.865000000000009,1.9399999999999409,1.9249999999999545,Ta2I4Se4,0.029,-0.534,0.993,-44.815,10,3,4.406,44.054,49.4,14.2,2.384
2857,3034,1.2225000000000819,1.1000000000000227,1.1750000000000682,1.165833333333391,Ta2Te4I4,0.055,-0.331,0.569,-41.674,10,3,4.81,46.605,56.6,14.2,2.2039999999999997
2858,3035,0.49250000000006366,0.227500000000191,0.2775000000001455,0.3325000000001334,Ta2Ni4Se4,0.02,-0.549,0.0,-68.042,10,3,4.961,22.451,39.4,11.4,2.084
2859,3036,1.8524999999999636,1.8524999999999636,1.8524999999999636,1.8524999999999636,Ta2Te4Ni4,0.0,-0.405,0.0,-65.494,10,3,5.483,23.145,46.6,11.4,1.904
2860,3037,2.8899999999999864,2.8724999999999454,2.8724999999999454,2.8783333333332926,Ti2P2S6,0.155,-0.704,0.0,-55.619,10,3,3.174,30.656,17.0,5.4,2.294
2861,3038,1.330000000000041,1.330000000000041,1.330000000000041,1.330000000000041,Ti2Br4S4,0.021,-0.998,1.031,-46.009,10,3,3.867,38.694,24.8,10.0,2.524
2862,3039,0.7649999999999864,0.7649999999999864,0.7649999999999864,0.7649999999999864,Ti2Se4Br4,0.038,-0.924,0.883,-42.885,10,3,4.179,40.428,32.0,14.0,2.5119999999999996
2863,3040,1.0,1.0,1.0,1.0,Ti2S4Cl4,0.027,-1.175,1.018,-48.578,10,3,3.865,35.876,17.6,6.0,2.604
2864,3041,0.7699999999999818,0.7699999999999818,0.7699999999999818,0.7699999999999818,Ti2Se4Cl4,0.048,-1.096,0.894,-45.416,10,3,4.175,37.626,24.8,10.0,2.592
2865,3042,0.6699999999999591,0.6699999999999591,0.6699999999999591,0.6699999999999591,I4Ti2Se4,0.0,-0.711,0.684,-40.337,10,3,4.189,44.769,39.2,14.0,2.3920000000000003
2866,3043,0.9750000000000227,0.9750000000000227,0.9750000000000227,0.9750000000000227,Te4I4Ti2,0.047,-0.535,0.476,-37.461,10,3,4.624,47.862,46.4,14.0,2.2119999999999997
2867,3044,0.7250000000000227,0.7250000000000227,0.7250000000000227,0.7250000000000227,V2Br4S4,0.002,-0.689,0.979,-46.588,10,3,3.887,36.417,25.0,10.2,2.5420000000000003
2868,3045,1.3724999999999454,1.3724999999999454,1.3724999999999454,1.3724999999999454,V2Se4Br4,0.052,-0.592,0.68,-43.237,10,3,4.182,38.2,32.2,14.2,2.53
2869,3046,1.3324999999999818,1.3324999999999818,1.3324999999999818,1.3324999999999818,V2S4Cl4,0.021,-0.84,0.989,-48.904,10,3,3.878,33.566,17.8,6.2,2.622
2870,3047,3.637499999999818,2.917499999999791,2.917499999999791,3.1574999999998,V2Se4Cl4,0.089,-0.739,0.647,-45.508,10,3,4.159,35.284,25.0,10.2,2.6100000000000003
2871,3048,0.3324999999999818,0.3324999999999818,0.3324999999999818,0.3324999999999818,W2Br4O4,0.0,-1.516,1.149,-64.971,10,3,4.909,29.975,32.0,10.4,3.032
2872,3049,1.8875000000000455,1.8875000000000455,1.8875000000000455,1.8875000000000455,W2Cl4O4,0.0,-1.691,2.187,-67.515,10,3,4.547,30.322,24.8,6.4,3.1119999999999997
2873,3050,0.7699999999999818,0.7699999999999818,0.7699999999999818,0.7699999999999818,W2O4F4,0.0,-2.59,2.36,-75.711,10,3,3.654,30.232,21.6,6.4,3.44
2874,3051,5.49249999999995,5.49249999999995,5.49249999999995,5.49249999999995,Y2Br4S4,0.044,-1.367,1.606,-45.704,10,3,3.621,50.072,28.2,9.8,2.46
2875,3052,5.172500000000014,5.150000000000091,5.155000000000086,5.159166666666731,Y2Se4Br4,0.035,-1.336,1.337,-43.015,10,3,3.777,51.487,35.4,13.8,2.4479999999999995
2876,3053,6.472499999999968,6.472499999999968,6.472499999999968,6.472499999999968,Zn2P2S6,0.02,-0.414,2.086,-41.703,10,3,3.232,31.305,18.6,7.0,2.316
2877,3054,3.699999999999932,3.699999999999932,3.699999999999932,3.699999999999932,Y2S4Cl4,0.044,-1.568,1.586,-48.518,10,3,3.43,47.153,21.0,5.8,2.54
2878,3055,8.079999999999927,8.079999999999927,8.079999999999927,8.079999999999927,Zn2Se6P2,0.023,-0.297,1.307,-36.966,10,3,3.389,34.919,29.4,13.0,2.2979999999999996
2879,3056,0.8400000000000318,0.8374999999999773,0.9474999999999909,0.875,Zr2P2S6,0.199,-0.822,0.759,-58.221,10,3,3.212,38.671,20.6,5.4,2.252
2880,3057,0.6849999999999454,0.7049999999999272,0.6849999999999454,0.691666666666606,Zr2Br4S4,0.0,-1.24,1.575,-49.854,10,3,3.982,41.698,28.4,10.0,2.482
2881,3058,1.8775000000000546,1.8775000000000546,1.8775000000000546,1.8775000000000546,Zr2Se4Br4,0.0,-1.167,1.381,-46.743,10,3,4.294,43.191,35.6,14.0,2.4699999999999998
2882,3059,1.4099999999999682,1.4099999999999682,1.4099999999999682,1.4099999999999682,Zr2Se6P2,0.191,-0.672,0.394,-53.151,10,3,3.475,41.058,31.4,11.4,2.234
2883,3060,2.0399999999999636,2.0399999999999636,2.0399999999999636,2.0399999999999636,Zr2Te4Br4,0.0,-0.975,0.972,-43.714,10,3,4.732,46.145,42.8,14.0,2.29
2884,3061,0.50750000000005,0.50750000000005,0.50750000000005,0.50750000000005,Zr2S4Cl4,0.0,-1.433,1.6,-52.584,10,3,3.981,38.841,21.2,6.0,2.5620000000000003
2885,3062,0.23250000000007276,0.24250000000006366,0.20250000000010004,0.22583333333341216,Zr2Se4Cl4,0.0,-1.356,1.437,-49.433,10,3,4.294,40.347,28.4,10.0,2.55
2886,3063,2.0924999999999727,2.0924999999999727,2.0924999999999727,2.0924999999999727,Zr2Te4Cl4,0.061,-1.154,1.028,-46.307,10,3,4.705,43.156,35.6,10.0,2.37
2887,3064,0.4499999999999318,0.6074999999999591,0.4499999999999318,0.5024999999999409,Zr2I4S4,0.0,-1.001,1.386,-47.046,10,3,3.993,46.16,35.6,10.0,2.362
2888,3065,0.6549999999999727,0.6549999999999727,0.6549999999999727,0.6549999999999727,Zr2I4Se4,0.0,-0.933,1.209,-43.985,10,3,4.307,47.686,42.8,14.0,2.35
2889,3066,0.8700000000000045,0.8700000000000045,0.8700000000000045,0.8700000000000045,Zr2Te4I4,0.007,-0.752,0.821,-41.061,10,3,4.746,50.441,50.0,14.0,2.1700000000000004
2890,3067,0.27750000000003183,0.16250000000002274,0.18000000000006366,0.20666666666670608,Au2Se2Li2,0.074,-0.603,1.614,-20.624,6,3,2.992,32.753,38.666666666666664,9.333333333333334,2.0233333333333334
2891,3068,0.7925000000000182,0.7925000000000182,0.7925000000000182,0.7925000000000182,Ti6Cl6N3,0.0,-1.674,0.0,-101.01,15,3,5.409,27.193,17.0,5.4,2.4880000000000004
2892,3069,0.07250000000010459,0.02250000000003638,0.6475000000000364,0.24750000000005912,Au2Rb2S2,0.096,-0.691,1.211,-20.381,6,3,4.262,28.207,44.0,6.0,1.9799999999999998
2893,3070,0.8874999999998181,1.0450000000000728,0.9675000000002001,0.966666666666697,Nb4Co8Se8,0.052,-0.491,0.0,-144.824,20,3,5.464,41.708,32.6,11.0,2.0919999999999996
2894,3071,0.3674999999998363,0.5625,0.4074999999997999,0.44583333333321207,Nb4Te8Co8,0.0,-0.346,0.0,-139.703,20,3,5.818,43.136,39.8,11.0,1.9120000000000001
2895,3072,2.287499999999909,2.294999999999959,2.287499999999909,2.289999999999926,Tl2Pb2I6,0.055,-0.632,1.862,-27.7,10,3,6.566,59.03,64.4,15.6,2.47
2896,3073,0.3774999999998272,0.4824999999998454,0.8450000000000273,0.5683333333332333,Pd2S2O6,0.06,-0.845,1.253,-54.987,10,3,3.605,27.024,17.2,6.8,3.0200000000000005
2897,3074,0.6075000000000728,0.6075000000000728,0.3300000000001546,0.5150000000001,Pd2S2O6,0.064,-0.841,0.681,-54.947,10,3,4.176,24.292,17.2,6.8,3.0200000000000005
2898,3075,0.1299999999996544,0.23499999999967258,0.1449999999999818,0.16999999999976959,Nb4Ni8S8,0.076,-0.624,0.0,-144.384,20,3,4.554,44.636,25.8,7.4,2.116
2899,3076,1.007499999999709,1.0199999999999818,1.0025000000000546,1.0099999999999152,Nb4Ni8Se8,0.033,-0.544,0.0,-138.025,20,3,4.938,45.362,33.0,11.4,2.104
2900,3077,0.2800000000002001,0.6900000000000546,0.30749999999989086,0.42583333333338186,Nb4Te8Ni8,0.012,-0.409,0.0,-133.11,20,3,5.473,46.748,40.2,11.4,1.9240000000000002