,ind,max_valorX,max_valorY,max_valorZ,media,formula,Ehull,HF,Gap,Energy,natoms,nspecies,thickness,uc_area,average_atomic_number,average_valence_number,average_electronegativity
828,867,0.8575000000000728,0.8874999999998181,0.6125000000001819,0.7858333333333576,Ta4Te10Ni6,0.0,-0.416,0.077,-123.109,20,3,3.924,66.134,49.0,12.0,1.923
829,868,0.9950000000000045,0.9950000000000045,0.9950000000000045,0.9950000000000045,Zr2Te2Br2,0.014,-1.128,0.0,-31.155,6,3,5.663,21.866,42.333333333333336,12.333333333333334,2.1300000000000003
830,869,1.4574999999999818,1.4574999999999818,1.4574999999999818,1.4574999999999818,Ta4Pd6Se10,0.044,-0.608,0.104,-109.166,20,3,4.04,65.202,45.4,12.0,2.2350000000000003
831,870,1.099999999999909,1.0275000000001455,1.0275000000001455,1.0516666666667334,Ta4Pd6Te10,0.0,-0.45,0.001,-103.237,20,3,4.306,70.322,54.4,12.0,2.0100000000000002
832,871,1.572499999999991,1.2300000000000182,1.2300000000000182,1.3441666666666758,Mn5Br2Cl3O6,0.077,-1.242,0.169,-107.733,16,4,6.049,38.745,18.375,7.875,2.736875
833,872,0.23500000000012733,0.4550000000001546,0.41000000000008185,0.36666666666678793,Hg3B2O6,0.026,-1.315,3.522,-61.274,11,3,0.006,75.352,27.09090909090909,7.090909090909091,2.7927272727272725
834,873,13.099999999999909,6.6749999999999545,10.917499999999905,10.230833333333257,In2Zn3S6,0.094,-0.621,0.0,-40.38,11,3,15.793,13.231,25.818181818181817,8.909090909090908,2.180909090909091
835,874,13.517500000000041,11.452499999999986,14.597499999999968,13.189166666666665,In2Te6Zn3,0.097,-0.322,0.0,-31.853,11,3,18.221,16.574,45.45454545454545,14.363636363636363,1.919090909090909
836,875,1.3775000000000546,1.3775000000000546,1.3775000000000546,1.3775000000000546,Pd3As2Se8,0.092,-0.153,0.845,-50.638,13,3,9.822,47.868,36.61538461538461,14.461538461538462,2.4123076923076923
837,876,1.0325000000000273,0.7375000000001819,0.7525000000000546,0.8408333333334213,Cd2Mn3O8,0.196,-1.369,1.102,-89.79,13,3,3.385,30.813,18.076923076923077,7.153846153846154,2.7346153846153842
838,877,2.0300000000000296,2.0300000000000296,2.0300000000000296,2.0300000000000296,Y2I2C2,0.0,-0.904,0.0,-36.205,6,3,6.952,14.288,32.666666666666664,8.0,2.143333333333333
839,878,0.3350000000000364,0.3650000000000091,0.3350000000000364,0.3450000000000273,Ca2Cl2F2,0.012,-3.227,6.02,-30.129,6,3,5.276,14.192,15.333333333333334,5.333333333333333,2.7133333333333334
840,879,1.1050000000000182,1.1050000000000182,1.1050000000000182,1.1050000000000182,Ni3P2S8,0.0,-0.295,1.053,-68.928,13,3,8.515,40.259,18.615384615384617,6.769230769230769,2.3653846153846154
841,880,0.7799999999999727,0.7799999999999727,0.7799999999999727,0.7799999999999727,Ni3Se8P2,0.067,-0.145,0.7,-62.212,13,3,9.233,44.044,29.692307692307693,12.923076923076923,2.3469230769230767
842,881,0.5824999999999818,0.6175000000000068,0.5824999999999818,0.5941666666666569,Ca2Cl2H2,0.003,-1.535,3.924,-23.453,6,3,5.109,13.804,12.666666666666666,3.3333333333333335,2.12
843,882,5.3250000000000455,5.3250000000000455,5.3250000000000455,5.3250000000000455,I2Ca2Cl2,0.071,-1.977,3.757,-22.415,6,3,4.004,31.682,30.0,8.666666666666666,2.2733333333333334
844,883,1.1400000000001,1.1400000000001,1.1400000000001,1.1400000000001,Pd3P2S8,0.0,-0.348,1.75,-59.336,13,3,8.638,44.378,22.76923076923077,6.769230769230769,2.4323076923076923
845,884,1.2800000000002,1.2800000000002,1.2800000000002,1.2800000000002,Pd3Se8P2,0.012,-0.243,1.463,-53.21,13,3,9.313,47.635,33.84615384615385,12.923076923076923,2.413846153846154
846,885,0.8774999999999409,0.8774999999999409,0.8774999999999409,0.8774999999999409,I2Ca2Cl2,0.077,-1.971,4.062,-22.379,6,3,6.075,27.511,30.0,8.666666666666666,2.2733333333333334
847,886,0.4249999999999545,0.5125000000000455,0.3224999999999909,0.419999999999997,I2Ca2F2,0.003,-2.853,3.959,-27.275,6,3,5.961,16.074,27.333333333333332,8.666666666666666,2.546666666666667
848,887,1.1625000000001364,1.1625000000001364,1.1625000000001364,1.1625000000001364,Pt3P2S8,0.008,-0.346,1.888,-66.909,13,3,8.631,45.942,30.153846153846153,6.769230769230769,2.4507692307692306
849,888,0.4925000000000068,0.4549999999999841,0.4549999999999841,0.46749999999999164,Ca2Fe2Si2,0.135,-0.282,0.0,-34.597,6,3,4.409,16.135,20.0,4.666666666666667,1.5766666666666669
850,889,0.4149999999999636,0.47999999999996135,0.3050000000000068,0.39999999999997726,I2Ca2H2,0.0,-1.154,3.628,-20.554,6,3,5.656,16.214,24.666666666666668,6.666666666666667,1.9533333333333334
851,890,0.0474999999999568,0.1624999999999659,0.4849999999999568,0.2316666666666265,Ca2Mn2Si2,0.177,-0.231,0.0,-35.639,6,3,5.169,14.923,19.666666666666668,4.333333333333333,1.4833333333333332
852,891,1.2850000000000819,1.4075000000000273,1.767500000000041,1.4866666666667168,Co2Cl2O2,0.012,-0.846,0.0,-35.353,6,3,4.853,11.532,17.333333333333332,7.333333333333333,2.8266666666666667
853,892,1.6825000000000045,1.6825000000000045,1.6825000000000045,1.6825000000000045,Co2S2Cl2,0.0,-0.567,0.008,-31.585,6,3,5.173,14.688,20.0,7.333333333333333,2.54
854,893,1.0275000000000318,1.0275000000000318,1.0275000000000318,1.0275000000000318,Co2Se2Cl2,0.0,-0.485,0.0,-29.903,6,3,5.241,16.175,26.0,10.666666666666666,2.53
855,894,0.10750000000007276,0.21749999999997272,0.20000000000004547,0.17500000000003033,Si3P2O9,0.098,-2.29,5.102,-105.099,14,3,4.226,41.105,10.285714285714286,5.428571428571429,2.9314285714285715
856,895,0.9200000000000728,0.9200000000000728,0.9200000000000728,0.9200000000000728,Te2Co2Cl2,0.029,-0.393,0.0,-28.798,6,3,5.325,18.197,32.0,10.666666666666666,2.3800000000000003
857,896,1.3475000000000819,1.3475000000000819,1.3475000000000819,1.3475000000000819,Cr2Cl2F2,0.13,-1.612,1.057,-35.233,6,3,5.647,14.477,16.666666666666668,6.666666666666667,2.9333333333333336
858,897,1.4500000000000455,1.4500000000000455,1.4500000000000455,1.4500000000000455,Cr2Cl2F2,0.15,-1.592,1.131,-35.113,6,3,2.35,22.997,16.666666666666668,6.666666666666667,2.9333333333333336
859,898,1.4524999999999864,1.4524999999999864,3.497500000000059,2.1341666666666774,Cr2Cl2F2,0.159,-1.584,0.911,-35.062,6,3,4.423,19.743,16.666666666666668,6.666666666666667,2.9333333333333336
860,899,1.55499999999995,1.55499999999995,1.55499999999995,1.55499999999995,Cr2Cl2O2,0.0,-1.607,0.647,-42.279,6,3,5.118,12.525,16.333333333333332,6.333333333333333,2.7533333333333334
861,900,1.6100000000000136,1.6100000000000136,1.6100000000000136,1.6100000000000136,Cr2S2Cl2,0.0,-0.946,0.46,-36.222,6,3,5.374,16.421,19.0,6.333333333333333,2.466666666666667
862,901,4.587500000000091,4.587500000000091,4.587500000000091,4.587500000000091,Cr2Se2Cl2,0.013,-0.846,1.604,-34.429,6,3,2.831,21.74,25.0,9.666666666666666,2.4566666666666666
863,902,1.552500000000009,1.552500000000009,1.552500000000009,1.552500000000009,Cr2Se2Cl2,0.026,-0.834,0.176,-34.354,6,3,5.451,17.833,25.0,9.666666666666666,2.4566666666666666
864,903,1.615000000000009,1.615000000000009,1.615000000000009,1.615000000000009,Te2Cr2Cl2,0.016,-0.638,0.0,-32.623,6,3,5.647,19.922,31.0,9.666666666666666,2.3066666666666666
865,904,2.0599999999999454,1.1849999999999454,1.7999999999999545,1.6816666666666151,Cu2Cl2F2,0.044,-1.014,0.333,-20.18,6,3,2.255,21.328,18.333333333333332,8.333333333333334,3.0133333333333336
866,905,3.550000000000068,3.3899999999999864,3.3899999999999864,3.443333333333347,Al2S5,0.077,-0.688,2.211,-32.681,7,2,3.223,26.812,15.142857142857142,5.142857142857143,2.302857142857143
867,906,4.5575000000000045,4.5575000000000045,4.5575000000000045,4.5575000000000045,Te5Al2,0.002,-0.325,1.217,-25.775,7,2,4.06,34.441,40.857142857142854,12.285714285714286,1.9600000000000002
868,907,0.7200000000000273,0.7200000000000273,0.7200000000000273,0.7200000000000273,Mn2Cl2F2,0.06,-1.657,2.02,-36.122,6,3,2.385,21.255,17.0,7.0,2.8966666666666665
869,908,1.2725000000000364,1.259999999999991,1.2224999999999682,1.2516666666666652,Mn2Cl2F2,0.075,-1.643,2.012,-36.035,6,3,3.251,20.18,17.0,7.0,2.8966666666666665
870,909,5.877500000000055,5.877500000000055,5.877500000000055,5.877500000000055,Pb2Cl2F2,0.081,-1.786,3.548,-24.977,6,3,3.463,27.199,36.0,9.333333333333334,3.1566666666666667
871,910,1.287499999999909,0.8600000000000136,0.30750000000000455,0.818333333333309,Sn2Cl2F2,0.079,-1.635,2.852,-24.665,6,3,3.101,26.035,25.333333333333332,9.333333333333334,3.033333333333333
872,911,0.32749999999998636,0.4075000000000273,0.32749999999998636,0.3541666666666667,Sr2Cl2F2,0.034,-3.278,6.009,-29.763,6,3,5.44,15.989,21.333333333333332,5.333333333333333,2.6966666666666668
873,913,0.8899999999999864,0.8899999999999864,0.8899999999999864,0.8899999999999864,Fe2Cl2O2,0.066,-0.887,0.0,-37.224,6,3,4.796,11.816,17.0,7.0,2.81
874,914,3.802500000000009,3.607499999999959,3.607499999999959,3.672499999999976,Ga2S5,0.05,-0.424,1.803,-29.167,7,2,3.152,28.256,20.285714285714285,8.0,2.36
875,915,7.029999999999973,7.029999999999973,7.029999999999973,7.029999999999973,Ga2Cl2O2,0.0,-1.531,3.674,-28.812,6,3,5.243,12.678,18.666666666666668,8.666666666666666,2.8033333333333332
876,916,4.0625,4.0625,4.0625,4.0625,Te5Ga2,0.0,-0.246,0.86,-23.551,7,2,4.023,34.865,46.0,15.142857142857142,2.0171428571428573
877,917,1.82000000000005,1.8274999999999864,1.82000000000005,1.8225000000000289,Ga2S2Cl2,0.002,-0.901,2.92,-22.937,6,3,5.548,20.093,21.333333333333332,8.666666666666666,2.516666666666667
878,918,1.42999999999995,1.42999999999995,1.42999999999995,1.42999999999995,Ga2S2Cl2,0.021,-0.881,2.243,-22.818,6,3,3.18,23.733,21.333333333333332,8.666666666666666,2.516666666666667
879,919,3.347500000000082,3.347500000000082,3.347500000000082,3.347500000000082,In2S5,0.072,-0.342,1.671,-28.308,7,2,3.231,31.701,25.428571428571427,8.0,2.3514285714285714
880,920,3.1924999999999955,3.0049999999999955,3.027499999999918,3.0749999999999695,In2Se5,0.018,-0.364,1.487,-25.486,7,2,3.607,33.309,38.285714285714285,15.142857142857142,2.3299999999999996
881,921,3.4400000000000546,3.4400000000000546,3.4400000000000546,3.4400000000000546,In2Te5,0.004,-0.23,1.08,-23.158,7,2,4.054,37.47,51.142857142857146,15.142857142857142,2.0085714285714285
882,922,1.8550000000000182,1.8550000000000182,1.8550000000000182,1.8550000000000182,Ga2S2Cl2,0.125,-0.778,1.417,-22.199,6,3,5.313,17.66,21.333333333333332,8.666666666666666,2.516666666666667
883,923,0.43499999999994543,0.46500000000003183,0.44500000000005,0.4483333333333424,Ga2Se2Cl2,0.001,-0.868,2.612,-21.549,6,3,5.419,21.771,27.333333333333332,12.0,2.5066666666666664
884,924,5.435000000000059,5.435000000000059,5.435000000000059,5.435000000000059,P2S5,0.047,-0.11,2.018,-31.892,7,2,2.992,31.346,15.714285714285714,5.714285714285714,2.468571428571429
885,925,6.360000000000014,6.360000000000014,6.360000000000014,6.360000000000014,Se5P2,0.088,0.04,1.156,-27.861,7,2,3.239,35.634,28.571428571428573,12.857142857142858,2.447142857142857
886,926,5.9874999999999545,5.9874999999999545,5.9874999999999545,5.9874999999999545,Ga2Se2Cl2,0.011,-0.858,2.759,-21.492,6,3,5.103,24.504,27.333333333333332,12.0,2.5066666666666664
887,927,0.3650000000000091,0.3925000000000409,0.375,0.37750000000001666,Te2Ga2Cl2,0.0,-0.73,2.163,-20.167,6,3,5.304,24.752,33.333333333333336,12.0,2.356666666666667
888,928,3.740000000000009,3.552500000000009,3.552500000000009,3.615000000000009,Tl2Se5,0.051,-0.105,0.862,-23.146,7,2,3.618,34.693,47.42857142857143,15.142857142857142,2.404285714285714
889,929,3.7024999999999864,3.7024999999999864,3.7024999999999864,3.7024999999999864,Tl2Te5,0.095,-0.034,0.604,-21.256,7,2,4.064,37.446,60.285714285714285,15.142857142857142,2.0828571428571427
890,930,4.4150000000000205,4.4150000000000205,4.4150000000000205,4.4150000000000205,Y2Ga2Cl2,0.01,-1.396,0.0,-27.134,6,3,7.28,14.514,29.0,7.666666666666667,2.0633333333333335
891,931,1.9300000000000068,1.9300000000000068,1.9300000000000068,1.9300000000000068,Sc2Cl2H2,0.0,-1.41,0.0,-27.996,6,3,5.75,10.604,13.0,3.6666666666666665,2.24
892,932,0.5299999999999727,0.5299999999999727,0.5299999999999727,0.5299999999999727,Sr2Cl2H2,0.035,-1.558,4.142,-22.914,6,3,5.267,15.889,18.666666666666668,3.3333333333333335,2.1033333333333335
893,933,61.9,61.9,61.9,61.9,Hf2Cl2N2,0.0,-1.861,2.33,-46.453,6,3,6.248,11.22,32.0,5.333333333333333,2.5
894,934,61.9,61.9,61.9,61.9,Hf2Cl2N2,0.004,-1.857,2.101,-46.427,6,3,5.607,14.571,32.0,5.333333333333333,2.5
895,935,1.5574999999998909,1.5574999999998909,1.5574999999998909,1.5574999999998909,Cr4O10,0.0,-1.626,0.5,-111.637,14,2,4.873,33.91,12.571428571428571,6.0,2.9314285714285715
896,936,61.9,61.9,61.9,61.9,Hf2S2Cl2,0.0,-1.66,0.0,-36.696,6,3,5.294,18.068,35.0,5.666666666666667,2.3466666666666667
897,937,61.9,61.9,61.9,61.9,Hf2Se2Cl2,0.019,-1.476,0.0,-34.402,6,3,5.27,19.134,41.0,9.0,2.3366666666666664
898,938,0.25,0.25,0.25,0.25,Hg10F4,0.05,-0.699,1.172,-24.991,14,2,6.306,54.272,59.714285714285715,10.571428571428571,2.565714285714286
899,939,61.9,61.9,61.9,61.9,Hf2Te2Cl2,0.051,-1.155,0.0,-31.919,6,3,5.181,21.123,47.0,9.0,2.186666666666667
900,940,1.6925000000001091,1.6925000000001091,1.6925000000001091,1.6925000000001091,V4O10,0.0,-2.277,2.062,-117.223,14,2,4.459,40.744,12.285714285714286,5.714285714285714,2.922857142857143
901,941,1.9975000000000591,1.9975000000000591,1.9975000000000591,1.9975000000000591,In2I2Cl2,0.019,-0.774,2.473,-16.7,6,3,3.565,41.736,39.666666666666664,12.333333333333334,2.5333333333333337
902,942,0.2899999999999636,0.25499999999988177,0.25499999999988177,0.26666666666657574,V4O10,0.017,-2.261,1.564,-116.991,14,2,7.099,22.679,12.285714285714286,5.714285714285714,2.922857142857143
903,943,0.9325000000000045,0.9325000000000045,0.9325000000000045,0.9325000000000045,I2Mg2Cl2,0.08,-1.404,3.073,-18.186,6,3,2.986,35.114,27.333333333333332,8.666666666666666,2.376666666666667
904,944,0.94500000000005,1.0300000000000864,1.9075000000000273,1.2941666666667213,I2Mn2Cl2,0.013,-0.727,1.531,-30.323,6,3,5.448,27.814,31.666666666666668,10.333333333333334,2.4566666666666666
905,945,1.5500000000000682,1.5500000000000682,1.5500000000000682,1.5500000000000682,I2Mn2Cl2,0.036,-0.704,1.412,-30.183,6,3,2.98,34.517,31.666666666666668,10.333333333333334,2.4566666666666666
906,946,1.6075000000000728,1.6075000000000728,1.6075000000000728,1.6075000000000728,I2Mn2Cl2,0.037,-0.703,1.393,-30.178,6,3,4.63,28.607,31.666666666666668,10.333333333333334,2.4566666666666666
907,947,2.492500000000291,2.5225000000000364,2.4950000000003456,2.5033333333335577,Te5Sc2O13,0.044,-1.694,3.167,-125.836,20,3,5.609,56.234,20.3,8.2,2.897
908,948,0.6449999999999818,0.6449999999999818,0.6449999999999818,0.6449999999999818,Sr2I2Cl2,0.057,-2.071,3.971,-22.304,6,3,6.571,21.705,36.0,8.666666666666666,2.256666666666667
909,949,4.7999999999999545,4.7999999999999545,4.7999999999999545,4.7999999999999545,Bi6Se2S7,0.019,-0.356,0.392,-68.898,15,3,6.745,43.372,45.2,10.933333333333334,2.352
910,950,3.4500000000000455,3.9225000000000136,3.4500000000000455,3.607500000000035,Sr2I2Cl2,0.063,-2.065,4.133,-22.267,6,3,4.093,35.7,36.0,8.666666666666666,2.256666666666667
911,951,2.0325000000000273,2.409999999999968,1.990000000000009,2.1441666666666683,Zr2I2Cl2,0.071,-1.237,0.479,-28.753,6,3,4.091,23.797,36.666666666666664,9.333333333333334,2.3833333333333333
912,952,0.40250000000003183,0.46500000000003183,0.40250000000003183,0.42333333333336515,In2Cl2O2,0.0,-1.42,2.607,-27.866,6,3,5.667,14.777,24.666666666666668,8.666666666666666,2.7933333333333334
913,953,61.9,61.9,61.9,61.9,In2S2Cl2,0.019,-0.81,1.797,-22.115,6,3,5.669,20.082,27.333333333333332,8.666666666666666,2.506666666666667
914,954,6.222499999999968,6.222499999999968,6.222499999999968,6.222499999999968,In2S2Cl2,0.028,-0.801,2.329,-22.06,6,3,5.823,22.823,27.333333333333332,8.666666666666666,2.506666666666667
915,955,4.939999999999941,4.9325000000000045,4.9325000000000045,4.934999999999984,In2S2Cl2,0.045,-0.785,2.643,-21.96,6,3,3.77,25.737,27.333333333333332,8.666666666666666,2.506666666666667
916,956,7.660000000000025,7.660000000000025,7.660000000000025,7.660000000000025,In2Se2Cl2,0.016,-0.799,2.127,-20.859,6,3,5.57,24.499,33.333333333333336,12.0,2.4966666666666666
917,957,0.5425000000000182,0.5425000000000182,0.5425000000000182,0.5425000000000182,In2Se2Cl2,0.021,-0.794,2.23,-20.824,6,3,5.084,27.91,33.333333333333336,12.0,2.4966666666666666
918,958,0.3949999999999818,0.4050000000000864,0.3949999999999818,0.39833333333335,In2Se2Cl2,0.058,-0.757,1.067,-20.605,6,3,5.629,21.821,33.333333333333336,12.0,2.4966666666666666
919,959,7.017499999999927,7.017499999999927,7.017499999999927,7.017499999999927,Nb3Te14Ni3,0.027,-0.333,0.0,-104.24,20,3,4.354,79.798,46.75,13.45,1.9965
920,960,9.412500000000023,9.412500000000023,9.412500000000023,9.412500000000023,In2Te2Cl2,0.007,-0.698,1.858,-19.691,6,3,5.445,27.32,39.333333333333336,12.0,2.3466666666666667
921,961,8.214999999999918,8.214999999999918,8.214999999999918,8.214999999999918,Nb3Pd3Se14,0.022,-0.552,0.0,-102.245,20,3,3.882,72.552,36.85,13.45,2.3549999999999995
922,962,8.504999999999882,8.504999999999882,8.504999999999882,8.504999999999882,Nb3Pd3Te14,0.014,-0.385,0.0,-94.997,20,3,4.387,83.272,49.45,13.45,2.04
923,963,5.815000000000055,5.815000000000055,5.815000000000055,5.815000000000055,Pt3Nb3S14,0.055,-0.631,0.0,-119.752,20,3,3.574,66.838,29.05,6.45,2.3880000000000003
924,964,7.724999999999909,7.724999999999909,7.724999999999909,7.724999999999909,Pt3Nb3Se14,0.017,-0.586,0.0,-110.525,20,3,3.856,72.964,41.65,13.45,2.367
925,965,8.1875,8.1875,8.1875,8.1875,Pt3Nb3Te14,0.01,-0.411,0.0,-103.13,20,3,4.316,83.338,54.25,13.45,2.0520000000000005
926,966,2.0,2.0,2.0,2.0,Ir2S2Cl2,0.0,-0.5,0.355,-33.279,6,3,5.415,16.468,36.666666666666664,7.333333333333333,2.646666666666667
927,967,1.3949999999999818,1.3949999999999818,1.3949999999999818,1.3949999999999818,Ir2Se2Cl2,0.022,-0.408,0.062,-31.535,6,3,5.458,18.034,42.666666666666664,10.666666666666666,2.6366666666666667
928,968,6.952499999999873,6.952499999999873,6.952499999999873,6.952499999999873,Ta3Te14Ni3,0.024,-0.296,0.0,-101.982,20,3,4.302,79.986,51.55,13.45,1.9815
929,969,1.3450000000000273,1.3450000000000273,1.3450000000000273,1.3450000000000273,Ir2Te2Cl2,0.031,-0.38,0.0,-30.811,6,3,5.587,20.01,48.666666666666664,10.666666666666666,2.486666666666667
930,970,7.892500000000155,7.892500000000155,7.892500000000155,7.892500000000155,Ta3Pd3Se14,0.008,-0.55,0.0,-100.66,20,3,3.894,72.861,41.65,13.45,2.34
931,971,8.444999999999936,8.444999999999936,8.444999999999936,8.444999999999936,Ta3Pd3Te14,0.009,-0.349,0.0,-92.749,20,3,4.38,83.482,54.25,13.45,2.025
932,972,5.7999999999999545,5.7999999999999545,5.7999999999999545,5.7999999999999545,Ta3Pt3S14,0.045,-0.653,0.0,-118.658,20,3,3.626,67.082,33.85,6.45,2.373
933,973,7.442500000000109,7.442500000000109,7.442500000000109,7.442500000000109,Ta3Pt3Se14,0.006,-0.583,0.0,-108.94,20,3,3.885,73.213,46.45,13.45,2.3519999999999994
934,974,8.167500000000018,8.167500000000018,8.167500000000018,8.167500000000018,Ta3Pt3Te14,0.015,-0.377,0.0,-100.919,20,3,4.326,83.589,59.05,13.45,2.037
935,975,10.350000000000023,10.360000000000014,10.350000000000023,10.353333333333353,Ir2Te2Cl2,0.048,-0.363,1.096,-30.711,6,3,2.649,25.477,48.666666666666664,10.666666666666666,2.486666666666667
936,976,2.2825000000000273,2.2825000000000273,2.2825000000000273,2.2825000000000273,Se4Al3,0.096,-0.721,0.0,-30.192,7,2,9.154,12.153,25.0,10.428571428571429,2.1471428571428572
937,977,1.5650000000000546,1.5650000000000546,1.5650000000000546,1.5650000000000546,Mn2Cl2N2,0.119,-0.467,0.176,-42.512,6,3,5.119,11.951,16.333333333333332,6.333333333333333,2.5833333333333335
938,978,1.7024999999999864,1.7024999999999864,1.7024999999999864,1.7024999999999864,Mn2S2Cl2,0.07,-0.743,0.0,-35.618,6,3,5.395,16.935,19.333333333333332,6.666666666666667,2.43
939,979,1.4424999999999955,1.4424999999999955,1.4424999999999955,1.4424999999999955,Mn2Se2Cl2,0.079,-0.685,0.0,-34.081,6,3,5.509,18.341,25.333333333333332,10.0,2.42
940,980,1.447499999999991,1.447499999999991,1.447499999999991,1.447499999999991,Te2Mn2Cl2,0.08,-0.55,0.0,-32.715,6,3,5.697,20.265,31.333333333333332,10.0,2.27
941,981,0.37999999999999545,0.6100000000000136,0.45249999999998636,0.48083333333333184,Sc4C3,0.187,-0.322,0.0,-48.549,7,2,7.46,10.026,14.571428571428571,3.4285714285714284,1.8699999999999999