,ind,max_valorX,max_valorY,max_valorZ,media,formula,Ehull,HF,Gap,Energy,natoms,nspecies,thickness,uc_area,average_atomic_number,average_valence_number,average_electronegativity
3728,3942,61.9,61.9,61.9,61.9,Nb4Te12Cl2,0.015,-0.488,0.749,-92.121,18,3,5.051,81.813,45.666666666666664,12.555555555555555,2.106666666666667
3729,3943,61.9,61.9,61.9,61.9,Ta4S12Cl2,0.075,-0.78,0.546,-105.807,18,3,4.513,66.927,28.77777777777778,5.888888888888889,2.4044444444444446
3730,3944,61.9,61.9,61.9,61.9,Ta4Se12Cl2,0.04,-0.683,0.671,-96.919,18,3,4.738,72.662,40.77777777777778,12.555555555555555,2.384444444444444
3731,3945,61.9,61.9,61.9,61.9,Ta4Te12Cl2,0.017,-0.418,0.706,-88.818,18,3,5.046,81.754,52.77777777777778,12.555555555555555,2.0844444444444448
3732,3946,0.23250000000007276,0.21000000000003638,0.22499999999990905,0.22250000000000605,Nb4Cr2S12,0.031,-0.924,0.0,-125.692,18,3,2.985,58.886,22.444444444444443,5.777777777777778,2.26
3733,3947,0.21749999999997272,0.18250000000011823,0.1875,0.19583333333336364,Ta4Cr2S12,0.0,-0.96,0.0,-124.299,18,3,2.979,59.44,29.555555555555557,5.777777777777778,2.2377777777777776
3734,3948,1.117500000000291,1.0600000000004002,1.0825000000004366,1.0866666666670426,I4Cu2O12,0.03,-0.19,0.735,-78.182,18,3,5.507,42.267,20.333333333333332,9.0,3.0955555555555554
3735,3949,1.2300000000000182,1.2300000000000182,1.2300000000000182,1.2300000000000182,In4ISe3Br2SCl,0.045,-0.656,1.428,-39.885,12,6,7.397,48.284,37.833333333333336,13.666666666666666,2.424166666666667
3736,3950,61.9,61.9,61.9,61.9,Nb4I2S12,0.049,-0.693,0.318,-105.67,18,3,4.638,69.236,25.666666666666668,7.0,2.371111111111111
3737,3951,61.9,61.9,61.9,61.9,Nb4I2Se12,0.019,-0.623,0.577,-97.275,18,3,4.832,74.887,37.666666666666664,13.666666666666666,2.351111111111111
3738,3952,61.9,61.9,61.9,61.9,Nb4Te12I2,0.007,-0.397,0.673,-89.861,18,3,5.167,84.076,49.666666666666664,13.666666666666666,2.051111111111111
3739,3953,61.9,61.9,61.9,61.9,Ta4I2S12,0.093,-0.657,0.502,-102.991,18,3,4.55,68.879,32.77777777777778,7.0,2.348888888888889
3740,3954,61.9,61.9,61.9,61.9,Ta4I2Se12,0.049,-0.575,0.635,-94.361,18,3,4.799,74.719,44.77777777777778,13.666666666666666,2.328888888888889
3741,3955,61.9,61.9,61.9,61.9,Ta4Te12I2,0.004,-0.325,0.615,-86.534,18,3,5.148,83.869,56.77777777777778,13.666666666666666,2.028888888888889
3742,3956,2.5225000000000364,1.6024999999999636,1.6024999999999636,1.9091666666666545,Mo2As4O12,0.031,-1.538,1.978,-130.226,18,3,8.003,29.507,17.333333333333332,8.0,3.017777777777778
3743,3957,0.7450000000001182,0.9525000000001,0.8300000000001546,0.8425000000001243,Ta8TeSe2BrCl4C3N,0.087,-0.842,0.0,-150.281,20,7,6.203,39.613,41.6,7.5,2.2744999999999997
3744,3958,5.1825000000000045,5.1825000000000045,5.1825000000000045,5.1825000000000045,TaAgGeS4Cl2,0.025,-0.694,1.226,-43.3,9,5,3.743,35.244,27.77777777777778,7.555555555555555,2.453333333333333
3745,3959,2.082499999999982,1.5050000000001091,1.5050000000001091,1.6975000000000666,Mo2Sb4O12,0.038,-1.627,1.913,-130.806,18,3,8.127,29.663,21.333333333333332,8.0,2.988888888888889
3746,3960,1.0775000000001,1.0775000000001,1.0775000000001,1.0775000000001,I4CrMnCuS2,0.097,-0.335,0.0,-39.884,9,5,4.251,40.402,35.77777777777778,11.555555555555555,2.3233333333333337
3747,3961,0.7374999999997272,0.7649999999998727,0.7350000000001273,0.7458333333332424,I4Ni2O12,0.076,-0.209,0.545,-85.658,18,3,5.957,40.934,20.22222222222222,8.88888888888889,3.0966666666666667
3748,3962,0.2450000000003456,0.2450000000003456,0.2450000000003456,0.2450000000003456,Ni2N4O12,0.011,-0.428,0.825,-117.093,18,3,4.388,43.819,10.0,6.222222222222222,3.1811111111111114
3749,3963,1.1600000000003092,1.1600000000003092,1.1600000000003092,1.1600000000003092,Pd2I4O12,0.026,-0.157,1.034,-77.862,18,3,5.962,43.784,22.22222222222222,8.88888888888889,3.128888888888889
3750,3964,1.175000000000182,1.175000000000182,1.175000000000182,1.175000000000182,Pd2N4O12,0.0,-0.387,1.431,-109.502,18,3,4.52,47.153,12.0,6.222222222222222,3.2133333333333334
3751,3965,0.9600000000000364,0.9600000000000364,0.9600000000000364,0.9600000000000364,Pt2N4O12,0.013,-0.348,2.206,-113.866,18,3,4.635,46.106,15.555555555555555,6.222222222222222,3.2222222222222223
3752,3966,1.0975000000003092,1.1900000000000546,1.1525000000001455,1.1466666666668364,As4S2O12,0.0,-1.232,4.456,-110.478,18,3,2.661,57.896,14.444444444444445,8.0,3.0644444444444447
3753,3967,0.8374999999996362,0.9674999999997453,0.9074999999997999,0.9041666666663938,Sb4S2O12,0.0,-1.369,4.131,-111.915,18,3,3.304,58.59,18.444444444444443,8.0,3.035555555555556
3754,3968,1.4899999999997817,1.6475000000000364,1.6349999999997635,1.5908333333331939,As4Se2O12,0.075,-0.916,3.192,-103.59,18,3,2.115,59.882,16.444444444444443,9.11111111111111,3.0611111111111113
3755,3969,5.460000000000036,5.460000000000036,5.460000000000036,5.460000000000036,Sr2Ge4Cl12,0.0,-1.371,3.829,-67.51,18,3,8.793,55.476,22.666666666666668,8.0,2.658888888888889
3756,3970,0.2074999999999818,0.22749999999996362,0.21499999999991815,0.21666666666662118,Sr2P4O12,0.091,-2.413,5.087,-129.73,18,3,5.993,48.934,12.88888888888889,5.333333333333333,2.8855555555555554
3757,3971,6.244999999999891,6.244999999999891,6.244999999999891,6.244999999999891,Sr2P4S12,0.072,-0.623,2.344,-84.95,18,3,7.415,62.137,18.22222222222222,5.333333333333333,2.3122222222222226
3758,3972,5.974999999999909,5.957499999999982,5.957499999999982,5.963333333333291,Pb4Sr2Cl12,0.076,-1.547,2.998,-67.654,18,3,9.876,54.613,33.77777777777778,8.0,2.73
3759,3973,6.127499999999827,6.127499999999827,6.127499999999827,6.127499999999827,Sr2Sn4Cl12,0.022,-1.491,3.575,-67.835,18,3,9.218,55.938,26.666666666666668,8.0,2.647777777777778
3760,3975,0.17749999999978172,0.10750000000007276,0.17249999999967258,0.15249999999984234,Au4Te2O12,0.041,-0.368,1.08,-87.04,18,3,2.828,55.362,28.666666666666668,8.222222222222221,3.091111111111111
3761,3976,0.32749999999987267,0.2849999999998545,0.3024999999997817,0.3049999999998363,Te2Cu4O12,0.088,-0.581,0.449,-93.071,18,3,2.805,49.238,17.555555555555557,8.222222222222221,2.948888888888889
3762,3977,2.5150000000001,1.6224999999999454,1.6224999999999454,1.919999999999997,W2As4O12,0.038,-1.638,1.811,-132.595,18,3,8.101,28.713,20.88888888888889,8.0,3.04
3763,3978,2.072499999999991,1.5,1.5,1.6908333333333303,W2Sb4O12,0.038,-1.722,1.745,-133.084,18,3,8.233,28.576,24.88888888888889,8.0,3.011111111111111
3764,3979,61.9,61.9,61.9,61.9,Hf6IClCN2O4,0.122,-2.124,0.0,-126.578,15,6,6.651,27.956,36.93333333333333,5.733333333333333,2.4006666666666665
3765,3980,6.417500000000018,6.42999999999995,6.444999999999936,6.430833333333301,AgCuSe5P2S,0.016,-0.106,0.027,-39.795,10,5,3.672,35.55,29.2,11.8,2.354
3766,3981,0.032500000000027285,0.014999999999986358,0.029999999999972715,0.025833333333328785,K2GeO6H6,0.0,-1.366,4.237,-78.139,15,4,3.629,36.366,8.266666666666667,3.8666666666666667,2.4993333333333334
3767,3982,0.2900000000000773,0.3025000000000091,0.2900000000000773,0.29416666666672125,K2GeS6H6,0.045,-0.443,2.31,-58.021,15,4,4.656,53.435,11.466666666666667,3.8666666666666667,2.155333333333333
3768,3983,0.052500000000009095,0.04500000000007276,0.052500000000009095,0.05000000000003032,GeLi2O6H6,0.051,-1.4,4.083,-79.989,15,4,3.547,24.819,6.133333333333334,3.8666666666666667,2.5206666666666666
3769,3984,0.052500000000009095,0.03999999999996362,0.049999999999954525,0.04749999999997575,GeNa2O6H6,0.0,-1.362,4.152,-78.259,15,4,3.601,29.396,7.2,3.8666666666666667,2.5140000000000002
3770,3985,0.27499999999997726,0.2824999999999136,0.27499999999997726,0.27749999999995606,GeNa2S6H6,0.058,-0.398,2.274,-57.509,15,4,4.68,45.657,10.4,3.8666666666666667,2.1700000000000004
3771,3986,61.9,61.9,61.9,61.9,HfK2O6H6,0.034,-1.695,4.19,-86.068,15,4,3.988,38.441,10.933333333333334,3.2,2.452
3772,3987,61.9,61.9,61.9,61.9,HfK2S6H6,0.001,-0.713,3.014,-65.055,15,4,4.79,55.038,14.133333333333333,3.2,2.108
3773,3988,61.9,61.9,61.9,61.9,HfS6Li2H6,0.059,-0.652,3.008,-65.477,15,4,4.564,51.486,12.0,3.2,2.1293333333333337
3774,3989,61.9,61.9,61.9,61.9,HfNa2O6H6,0.004,-1.683,4.113,-86.053,15,4,3.933,31.634,9.866666666666667,3.2,2.466666666666667
3775,3990,61.9,61.9,61.9,61.9,HfNa2S6H6,0.015,-0.661,2.783,-64.448,15,4,4.773,47.046,13.066666666666666,3.2,2.122666666666667
3776,3991,0.06749999999999545,0.05750000000000455,0.06749999999999545,0.06416666666666515,PbK2O6H6,0.005,-1.201,3.076,-74.903,15,4,3.935,38.864,11.6,3.8666666666666667,2.5206666666666666
3777,3992,0.28499999999996817,0.29750000000001364,0.28499999999996817,0.28916666666665,PbK2S6H6,0.063,-0.408,1.59,-56.737,15,4,4.889,55.836,14.8,3.8666666666666667,2.1766666666666667
3778,3993,0.07499999999993179,0.06749999999999545,0.07499999999993179,0.072499999999953,PbNa2O6H6,0.0,-1.187,2.904,-74.863,15,4,3.863,32.031,10.533333333333333,3.8666666666666667,2.5353333333333334
3779,3994,0.2624999999999318,0.2724999999999227,0.2624999999999318,0.2658333333332621,PbNa2S6H6,0.075,-0.359,1.498,-56.171,15,4,4.978,48.864,13.733333333333333,3.8666666666666667,2.1913333333333336
3780,3995,0.08750000000009095,0.0724999999999909,0.0724999999999909,0.07750000000002426,PdK2O6H6,0.0,-1.111,2.493,-73.617,15,4,3.768,35.919,9.2,3.6,2.512
3781,3996,0.28499999999996817,0.3024999999998954,0.28499999999996817,0.29083333333327727,PdK2S6H6,0.026,-0.428,1.783,-57.097,15,4,4.653,51.769,12.4,3.6,2.168
3782,3997,0.4375,0.06999999999993634,0.07999999999992724,0.19583333333328787,PdLi2O6H6,0.053,-1.134,2.434,-75.302,15,4,3.636,25.059,7.066666666666666,3.6,2.533333333333333
3783,3998,0.10750000000007276,0.07500000000004547,0.09249999999997272,0.09166666666669698,PdNa2O6H6,0.004,-1.103,2.468,-73.669,15,4,3.708,29.358,8.133333333333333,3.6,2.526666666666667
3784,3999,0.27499999999997726,0.2724999999999227,0.2724999999999227,0.2733333333332742,PdNa2S6H6,0.033,-0.384,1.715,-56.614,15,4,4.695,45.178,11.333333333333334,3.6,2.182666666666667
3785,4000,0.08249999999998181,0.06999999999993634,0.06999999999993634,0.07416666666661816,PtK2O6H6,0.0,-1.152,2.843,-76.763,15,4,3.816,35.95,11.333333333333334,3.6,2.5173333333333336
3786,4001,0.30499999999995,0.28750000000002274,0.28750000000002274,0.29333333333333184,PtK2S6H6,0.0,-0.476,2.284,-60.352,15,4,4.684,52.372,14.533333333333333,3.6,2.1733333333333333
3787,4002,0.05749999999989086,0.05749999999989086,0.05499999999983629,0.056666666666539335,PtLi2O6H6,0.042,-1.172,2.833,-78.4,15,4,3.671,25.44,9.2,3.6,2.538666666666667
3788,4003,4.975000000000023,4.975000000000023,4.975000000000023,4.975000000000023,AuHgBrCl3,0.028,-0.406,0.128,-13.389,6,4,3.13,30.118,40.833333333333336,10.166666666666666,2.83
3789,4004,0.10749999999984539,0.0749999999998181,0.09499999999979991,0.09249999999982113,PtNa2O6H6,0.0,-1.142,2.835,-76.794,15,4,3.741,29.549,10.266666666666667,3.6,2.5320000000000005
3790,4005,0.27749999999991815,0.27499999999997726,0.27499999999997726,0.2758333333332909,PtNa2S6H6,0.004,-0.432,2.273,-59.867,15,4,4.698,45.313,13.466666666666667,3.6,2.188
3791,4006,1.25,1.25,1.25,1.25,AuI3MnBr,0.131,-0.206,0.0,-20.103,6,4,3.421,34.746,49.666666666666664,14.333333333333334,2.5050000000000003
3792,4007,0.05499999999994998,0.04250000000001819,0.05499999999994998,0.05083333333330605,SnK2O6H6,0.001,-1.366,4.058,-77.671,15,4,3.849,37.969,9.466666666666667,3.8666666666666667,2.4960000000000004
3793,4008,0.28749999999990905,0.2999999999999545,0.28749999999990905,0.29166666666659086,SnK2S6H6,0.0,-0.491,2.626,-58.281,15,4,4.799,54.914,12.666666666666666,3.8666666666666667,2.152
3794,4009,2.2900000000000773,2.2900000000000773,2.2900000000000773,2.2900000000000773,AuTlI3Br,0.008,-0.318,0.493,-13.553,6,4,3.902,37.045,59.0,15.333333333333334,2.5866666666666664
3795,4010,0.06499999999994088,0.05749999999989086,0.06499999999994088,0.062499999999924206,SnNa2O6H6,0.011,-1.355,3.937,-77.684,15,4,3.795,31.107,8.4,3.8666666666666667,2.510666666666667
3796,4011,0.2699999999999818,0.2800000000000864,0.2699999999999818,0.27333333333335,SnNa2S6H6,0.008,-0.442,2.587,-57.722,15,4,4.851,47.581,11.6,3.8666666666666667,2.1666666666666665
3797,4012,0.049999999999954525,0.0625,0.0625,0.05833333333331817,ZrK2O6H6,0.046,-1.684,4.248,-85.793,15,4,4.009,38.442,8.8,3.2,2.454
3798,4013,0.3100000000000591,0.29500000000007276,0.29500000000007276,0.3000000000000682,ZrK2S6H6,0.006,-0.706,2.689,-64.85,15,4,4.793,55.279,12.0,3.2,2.11
3799,4014,0.22249999999996817,0.20499999999992724,0.21749999999997272,0.21499999999995603,RuCuSeCl3,0.061,-0.442,0.278,-24.631,6,4,2.782,22.777,26.333333333333332,9.333333333333334,2.688333333333333
3800,4015,0.04750000000001364,0.0625,0.06000000000005912,0.05666666666669092,ZrNa2O6H6,0.038,-1.671,4.179,-85.774,15,4,3.949,31.652,7.733333333333333,3.2,2.4686666666666666
3801,4016,1.32000000000005,1.32000000000005,1.32000000000005,1.32000000000005,SrIVCl3,0.066,-1.607,1.219,-26.671,6,4,3.186,29.455,27.5,7.5,2.4533333333333336
3802,4017,1.759999999999991,1.759999999999991,1.759999999999991,1.759999999999991,WTe3MnSe,0.096,-0.187,0.123,-35.42,6,4,3.953,20.969,48.166666666666664,12.833333333333334,2.126666666666667
3803,4018,1.00750000000005,1.00750000000005,1.00750000000005,1.00750000000005,SnNaSCl3,0.056,-1.071,2.023,-21.224,6,4,3.047,27.322,21.333333333333332,7.0,2.4916666666666667
3804,4019,1.5049999999998818,1.5350000000000819,1.5049999999998818,1.5149999999999484,Pb2As2Cl2O6,0.067,-1.187,3.017,-65.397,12,4,6.191,30.742,26.0,9.0,2.9983333333333335
3805,4020,2.2549999999998818,2.240000000000009,2.240000000000009,2.244999999999967,Nb4Pd2Te14,0.017,-0.395,0.021,-101.711,20,3,6.642,76.119,49.2,13.2,2.0100000000000002
3806,4021,2.1625000000001364,2.1124999999999545,2.1124999999999545,2.129166666666682,Pb2As2O6F2,0.059,-1.526,3.334,-69.075,12,4,5.131,29.205,24.666666666666668,9.0,3.135
3807,4022,2.3125,2.275000000000091,2.275000000000091,2.2875000000000605,Ta4Pd2Te14,0.014,-0.348,0.031,-98.724,20,3,6.58,76.643,55.6,13.2,1.9900000000000002
3808,4023,2.2049999999999272,2.167499999999791,2.167499999999791,2.1799999999998363,Pt2Nb4Te14,0.013,-0.413,0.063,-107.147,20,3,6.612,75.946,52.4,13.2,2.018
3809,4024,2.277499999999918,2.207499999999982,2.207499999999982,2.230833333333294,Ta4Pt2Te14,0.019,-0.365,0.059,-104.149,20,3,6.572,76.306,58.8,13.2,1.998
3810,4025,12.944999999999709,1.7024999999998727,1.7024999999998727,5.449999999999818,Te4S2O14,0.026,-1.169,3.194,-116.085,20,3,9.033,43.119,17.6,8.0,3.086
3811,4026,8.412499999999909,1.7549999999996544,1.7549999999996544,3.974166666666406,Te4Se2O14,0.036,-0.875,2.888,-109.031,20,3,9.687,42.724,19.4,9.0,3.0829999999999997
3812,4027,0.07999999999992724,0.07749999999998636,0.09000000000003183,0.08249999999998181,Cs2C2O6H2,0.0,-1.537,4.324,-75.938,12,4,7.225,26.972,14.333333333333334,4.0,2.643333333333333
3813,4028,1.584999999999809,1.584999999999809,1.584999999999809,1.584999999999809,CdIn2F8,0.073,-2.464,3.977,-46.25,11,3,2.3,40.519,19.818181818181817,8.545454545454545,3.371818181818182
3814,4029,3.3099999999999454,3.324999999999818,3.3099999999999454,3.314999999999903,Au4I4O4H4,0.056,-0.407,0.021,-58.74,16,4,6.657,37.385,35.25,8.75,2.71
3815,4030,61.9,61.9,61.9,61.9,HfMo2O8,0.0,-2.478,3.311,-98.163,11,3,6.932,30.22,20.0,5.818181818181818,3.0127272727272727
3816,4031,0.06999999999993634,0.06749999999999545,0.07749999999998636,0.07166666666663939,K2C2O6H2,0.0,-1.542,4.463,-76.773,12,4,6.947,21.859,8.333333333333334,4.0,2.6483333333333334
3817,4032,0.06749999999999545,0.0724999999999909,0.06999999999993634,0.06999999999997424,Na2C2O6H2,0.0,-1.519,4.539,-76.671,12,4,7.195,18.074,7.0,4.0,2.6666666666666665
3818,4033,61.9,61.9,61.9,61.9,HfW2O8,0.018,-2.575,3.635,-99.791,11,3,6.97,30.555,25.818181818181817,5.818181818181818,3.049090909090909
3819,4034,0.07499999999993179,0.0724999999999909,0.08249999999998181,0.07666666666663484,Rb2C2O6H2,0.0,-1.533,4.385,-76.046,12,4,7.072,24.044,11.333333333333334,4.0,2.6483333333333334
3820,4035,0.22500000000004405,0.13250000000007134,0.2200000000001623,0.19250000000009257,MgB2F8,0.0,-3.138,8.241,-62.235,11,3,2.599,23.23,8.545454545454545,5.818181818181818,3.3845454545454547
3821,4036,0.09750000000002501,0.18500000000000227,0.24500000000000455,0.17583333333334394,MgB2H8,0.04,-0.232,6.082,-44.173,11,3,3.132,15.745,2.727272727272727,1.4545454545454546,2.0900000000000003
3822,4037,1.384999999999991,1.384999999999991,1.384999999999991,1.384999999999991,Re2MnO8,0.0,-1.73,1.565,-93.057,11,3,7.023,28.322,21.727272727272727,6.2727272727272725,2.988181818181818
3823,4038,0.36999999999989086,0.36999999999989086,0.36999999999989086,0.36999999999989086,NiCl2O8,0.193,-0.0,1.554,-51.812,11,3,6.403,20.174,11.454545454545455,6.545454545454546,3.25
3824,4039,0.7625000000000455,0.7625000000000455,0.7599999999999909,0.7616666666666939,Re2NiO8,0.0,-1.562,1.575,-88.735,11,3,6.904,26.324,22.0,6.545454545454546,3.0209090909090905
3825,4040,1.0350000000000819,1.0450000000000728,1.0350000000000819,1.0383333333334122,Ge2P2Cl2O6,0.0,-1.623,4.599,-73.547,12,4,6.072,30.778,14.666666666666666,7.333333333333333,2.9466666666666668
3826,4041,2.572499999999991,2.572499999999991,2.572499999999991,2.572499999999991,Ge2P2S6Cl2,0.057,-0.335,2.328,-51.825,12,4,6.944,42.323,18.666666666666668,7.333333333333333,2.5166666666666666
3827,4042,1.4600000000000364,1.4600000000000364,1.4600000000000364,1.4600000000000364,Re2PdO8,0.0,-1.42,0.88,-83.752,11,3,7.107,27.213,23.636363636363637,6.545454545454546,3.047272727272727
3828,4043,0.5675000000001091,0.5975000000000819,0.6649999999999636,0.6100000000000515,SrAg2O8,0.042,-0.518,0.0,-54.048,11,3,3.786,24.652,17.818181818181817,6.545454545454546,2.939090909090909
3829,4044,1.4600000000000364,1.4725000000000819,1.4600000000000364,1.4641666666667181,Pb2P2Cl2O6,0.033,-1.729,3.727,-73.31,12,4,5.918,29.015,23.0,7.333333333333333,3.0
3830,4045,2.769999999999982,2.769999999999982,2.769999999999982,2.769999999999982,Pb2P2S6Cl2,0.072,-0.453,2.103,-51.717,12,4,6.799,44.16,27.0,7.333333333333333,2.57
3831,4046,1.1400000000001,1.1524999999999181,1.1400000000001,1.144166666666706,Sn2P2Cl2O6,0.0,-1.694,4.082,-73.488,12,4,5.935,30.654,17.666666666666668,7.333333333333333,2.938333333333334
3832,4047,61.9,61.9,61.9,61.9,SrCu2O8,0.067,-0.663,0.0,-57.311,11,3,3.838,21.783,14.545454545454545,6.545454545454546,2.933636363636363
3833,4048,2.8199999999999363,2.8199999999999363,2.8199999999999363,2.8199999999999363,Sn2P2S6Cl2,0.055,-0.406,2.393,-51.752,12,4,6.884,44.267,21.666666666666668,7.333333333333333,2.5083333333333333
3834,4049,1.6275000000000546,1.6275000000000546,1.6275000000000546,1.6275000000000546,Re2ZnO8,0.0,-1.71,3.966,-84.302,11,3,6.968,27.186,22.181818181818183,6.7272727272727275,2.997272727272727
3835,4050,0.49499999999989086,0.49499999999989086,0.5024999999998272,0.49749999999986966,ZrMo2O8,0.011,-2.473,3.205,-98.002,11,3,6.933,30.326,17.09090909090909,5.818181818181818,3.0154545454545456
3836,4051,1.4200000000000728,1.4200000000000728,1.4200000000000728,1.4200000000000728,Ge2P2O6F2,0.0,-2.037,4.634,-78.121,12,4,5.178,29.757,13.333333333333334,7.333333333333333,3.0833333333333335
3837,4052,0.5025000000000546,0.5025000000000546,0.5125000000000455,0.5058333333333849,W2ZrO8,0.024,-2.568,3.486,-99.62,11,3,6.972,30.667,22.90909090909091,5.818181818181818,3.0518181818181818
3838,4053,1.5150000000001,1.5150000000001,1.5150000000001,1.5150000000001,Ge2P2S6F2,0.014,-0.725,2.508,-56.1,12,4,6.003,41.566,17.333333333333332,7.333333333333333,2.6533333333333333
3839,4054,1.7899999999999636,1.7899999999999636,1.7899999999999636,1.7899999999999636,Pb2P2O6F2,0.0,-2.135,3.728,-77.787,12,4,5.053,28.249,21.666666666666668,7.333333333333333,3.1366666666666667
3840,4055,1.5225000000000364,1.5225000000000364,1.5225000000000364,1.5225000000000364,Pb2P2S6F2,0.011,-0.853,1.996,-56.124,12,4,5.803,42.776,25.666666666666668,7.333333333333333,2.7066666666666666
3841,4056,1.5050000000001091,1.5050000000001091,1.5050000000001091,1.5050000000001091,Sn2P2O6F2,0.0,-2.106,3.985,-78.035,12,4,5.06,29.551,16.333333333333332,7.333333333333333,3.0749999999999997