,ind,max_valorX,max_valorY,max_valorZ,media,formula,Ehull,HF,Gap,Energy,natoms,nspecies,thickness,uc_area,average_atomic_number,average_valence_number,average_electronegativity
1294,1358,0.3275000000000432,0.3275000000000432,0.3275000000000432,0.3275000000000432,Rb2Cl2,0.066,-1.903,4.689,-13.001,4,2,3.331,21.625,27.0,4.0,1.99
1295,1359,0.3275000000000432,0.3275000000000432,0.3550000000000182,0.33666666666670153,Rb2Cl2,0.146,-1.823,4.651,-12.679,4,2,1.119,40.511,27.0,4.0,1.99
1296,1360,2.294999999999959,2.294999999999959,2.294999999999959,2.294999999999959,Mn2Se2S2,0.0,-0.52,0.0,-37.677,6,3,2.753,20.23,25.0,9.666666666666666,2.2266666666666666
1297,1361,1.142500000000041,1.1399999999999864,1.1399999999999864,1.1408333333333378,Mo2Te2Se2,0.08,-0.424,0.0,-38.325,6,3,3.931,20.846,42.666666666666664,12.666666666666666,2.27
1298,1362,0.7725000000000364,2.865000000000009,0.8099999999999454,1.482499999999997,Nb2Se2N2,0.091,-0.805,0.33,-49.155,6,3,2.55,18.99,27.333333333333332,8.666666666666666,2.396666666666667
1299,1363,0.04250000000001819,0.14999999999997726,0.5850000000000364,0.25916666666667726,Ni2Na2P2,0.048,-0.375,0.0,-30.087,6,3,4.653,14.916,18.0,5.333333333333333,1.6766666666666665
1300,1364,0.20999999999997954,0.20999999999997954,0.20999999999997954,0.20999999999997954,Tl2Na2S2,0.047,-0.677,1.924,-19.83,6,3,6.728,21.663,36.0,6.666666666666667,1.8500000000000003
1301,1365,0.3675000000000068,0.2999999999999545,0.2799999999999727,0.3158333333333114,Tl2Na2S2,0.088,-0.636,2.178,-19.584,6,3,2.594,32.971,36.0,6.666666666666667,1.8500000000000003
1302,1366,1.927500000000009,1.927500000000009,1.927500000000009,1.927500000000009,Sc2Cl2,0.077,-1.393,0.0,-18.463,4,2,5.86,10.423,19.0,5.0,2.2600000000000002
1303,1367,2.694999999999993,2.694999999999993,2.694999999999993,2.694999999999993,Si2Cl2,0.095,-0.681,1.253,-17.092,4,2,4.89,13.531,15.5,5.5,2.5300000000000002
1304,1368,0.14999999999997726,0.15250000000003183,0.2300000000000182,0.1775000000000091,Tl2Ni2P2,0.07,-0.235,0.0,-31.631,6,3,5.281,15.913,41.333333333333336,9.333333333333334,2.046666666666667
1305,1369,0.4000000000000341,0.5225000000000364,2.1225000000000023,1.0150000000000243,Tl2Cl2,0.021,-1.003,3.029,-12.579,4,2,3.3,20.64,49.0,10.0,2.6
1306,1370,0.4700000000000273,1.7624999999999886,0.5325000000000273,0.9216666666666811,Tl2Cl2,0.059,-0.965,3.629,-12.427,4,2,3.295,25.178,49.0,10.0,2.6
1307,1371,1.0224999999999795,0.7199999999999704,0.7199999999999704,0.8208333333333068,Tl2Cl2,0.062,-0.963,3.493,-12.416,4,2,2.501,28.638,49.0,10.0,2.6
1308,1372,0.09499999999997044,0.06749999999999545,0.3050000000000068,0.15583333333332425,Sr2Ni2Si2,0.05,-0.408,0.0,-31.092,6,3,5.046,16.36,26.666666666666668,5.333333333333333,1.5866666666666667
1309,1373,0.2825000000000273,0.36000000000001364,0.3424999999999727,0.32833333333333786,Ti2S2O2,0.076,-2.119,0.605,-44.496,6,3,5.873,9.726,15.333333333333334,5.333333333333333,2.52
1310,1374,0.9700000000000273,0.5924999999999727,0.5750000000000455,0.7125000000000151,Ti2Se2O2,0.066,-2.04,0.0,-42.835,6,3,3.28,18.603,21.333333333333332,8.666666666666666,2.51
1311,1375,6.962500000000034,4.275000000000034,5.402500000000032,5.5466666666667,Tl2Pb2P2,0.057,0.046,0.359,-22.965,6,3,4.195,28.097,59.333333333333336,10.666666666666666,2.186666666666667
1312,1376,0.2074999999999818,0.5224999999999795,0.2349999999999568,0.3216666666666394,Tl2Sn2P2,0.049,0.026,0.276,-23.678,6,3,5.343,24.448,48.666666666666664,10.666666666666666,2.063333333333333
1313,1377,1.6075000000000728,1.6075000000000728,1.6075000000000728,1.6075000000000728,Pd2Se2S2,0.065,-0.229,0.0,-24.134,6,3,3.442,20.919,32.0,10.666666666666666,2.4433333333333334
1314,1379,0.3599999999999568,0.339999999999975,0.2524999999999977,0.3174999999999765,Zr2Si2S2,0.057,-1.193,0.0,-40.917,6,3,6.403,12.064,23.333333333333332,4.666666666666667,1.9366666666666668
1315,1380,0.9375,0.9325000000000045,0.8725000000000023,0.9141666666666689,Zr2Se2Si2,0.016,-1.09,0.0,-39.107,6,3,6.672,12.59,29.333333333333332,8.0,1.9266666666666665
1316,1381,0.5849999999999795,0.5849999999999795,0.5849999999999795,0.5849999999999795,Zr2Cl2,0.0,-1.327,0.0,-23.684,4,2,5.85,10.268,28.5,5.5,2.245
1317,1382,0.3025000000000091,0.3050000000000068,0.3025000000000091,0.30333333333334167,Zr2Cl2,0.056,-1.271,0.0,-23.46,4,2,6.104,9.709,28.5,5.5,2.245
1318,1383,1.0874999999999773,1.0224999999999795,0.92999999999995,1.0133333333333023,Zr2Te2Si2,0.009,-0.816,0.0,-36.91,6,3,7.046,13.528,35.333333333333336,8.0,1.7766666666666666
1319,1385,1.1475000000000364,1.1475000000000364,1.1475000000000364,1.1475000000000364,Co2F2,0.166,-1.185,0.0,-24.372,4,2,4.476,6.451,18.0,8.0,2.9299999999999997
1320,1393,0.2674999999999841,0.3125,0.277499999999975,0.2858333333333197,Co2S2,0.051,-0.44,0.0,-26.374,4,2,2.42,13.241,21.5,7.5,2.23
1321,1394,0.2974999999999568,0.31749999999999545,0.35499999999996135,0.32333333333330455,Co2S2,0.072,-0.419,0.0,-26.291,4,2,2.823,11.097,21.5,7.5,2.23
1322,1396,6.162499999999909,6.137499999999932,6.069999999999936,6.123333333333259,Br4Al4S4,0.0,-1.117,3.91,-51.013,12,3,4.974,46.589,21.333333333333332,8.666666666666666,2.3833333333333333
1323,1397,7.907500000000027,7.907500000000027,7.907500000000027,7.907500000000027,Se4Br4Al4,0.0,-1.005,3.639,-47.281,12,3,4.904,50.772,27.333333333333332,12.0,2.3733333333333335
1324,1398,7.762499999999932,7.702499999999986,7.702499999999986,7.722499999999968,Te4Br4Al4,0.003,-0.774,2.817,-43.398,12,3,4.721,58.662,33.333333333333336,12.0,2.2233333333333336
1325,1399,0.6349999999999909,0.6274999999999977,0.5699999999999932,0.6108333333333272,Co2Se2,0.016,-0.266,0.0,-24.488,4,2,2.866,13.293,30.5,12.5,2.215
1326,1400,0.3149999999999977,0.27000000000003865,0.3300000000000409,0.30500000000002575,Co2Se2,0.058,-0.225,0.0,-24.322,4,2,3.084,12.122,30.5,12.5,2.215
1327,1401,7.5674999999999955,7.5674999999999955,7.5674999999999955,7.5674999999999955,Al4S4Cl4,0.0,-1.291,4.665,-53.895,12,3,4.593,45.883,15.333333333333334,5.333333333333333,2.45
1328,1402,7.610000000000014,7.610000000000014,7.610000000000014,7.610000000000014,Se4Al4Cl4,0.0,-1.173,4.066,-50.101,12,3,4.501,50.008,21.333333333333332,8.666666666666666,2.44
1329,1403,29.522500000000036,10.737500000000068,10.737500000000068,16.999166666666724,Se4Al4Cl4,0.008,-1.165,3.905,-50.005,12,3,5.597,42.824,21.333333333333332,8.666666666666666,2.44
1330,1404,0.7524999999999977,0.7300000000000182,0.5299999999999727,0.6708333333333295,Te2Co2,0.079,-0.088,0.0,-23.218,4,2,3.258,14.016,39.5,12.5,1.99
1331,1405,0.2725000000000364,0.1925000000000523,0.27000000000003865,0.24500000000004243,Te2Co2,0.14,-0.027,0.0,-22.974,4,2,3.391,13.49,39.5,12.5,1.99
1332,1406,7.660000000000082,7.660000000000082,7.660000000000082,7.660000000000082,Te4Al4Cl4,0.004,-0.935,2.985,-46.133,12,3,4.291,57.845,27.333333333333332,8.666666666666666,2.29
1333,1407,7.909999999999968,7.909999999999968,7.909999999999968,7.909999999999968,I4Al4S4,0.01,-0.888,2.769,-47.837,12,3,5.434,47.858,27.333333333333332,8.666666666666666,2.2833333333333337
1334,1408,7.225000000000023,7.310000000000059,7.170000000000073,7.235000000000052,I4Se4Al4,0.0,-0.786,2.699,-44.224,12,3,5.384,52.153,33.333333333333336,12.0,2.2733333333333334
1335,1409,8.322499999999991,8.322499999999991,8.322499999999991,8.322499999999991,Te4I4Al4,0.0,-0.569,2.397,-40.517,12,3,5.252,59.925,39.333333333333336,12.0,2.1233333333333335
1336,1410,3.125,3.125,3.125,3.125,Tl4As4Be4,0.082,0.021,0.29,-43.197,12,3,5.935,35.462,39.333333333333336,10.0,1.9300000000000004
1337,1411,4.544999999999959,4.457499999999982,4.677500000000009,4.559999999999984,Ge4As4S4,0.0,-0.224,2.041,-55.717,12,3,3.075,51.093,27.0,11.666666666666666,2.2566666666666664
1338,1412,1.2250000000000227,1.2250000000000227,1.2250000000000227,1.2250000000000227,Ge4As4Se4,0.005,-0.181,1.735,-52.821,12,3,3.428,53.178,33.0,15.0,2.2466666666666666
1339,1413,1.4424999999999955,1.4424999999999955,1.4424999999999955,1.4424999999999955,Te4Ge4As4,0.028,-0.034,1.222,-49.942,12,3,3.938,56.366,39.0,15.0,2.0966666666666662
1340,1414,4.587500000000034,0.28750000000002274,1.072499999999991,1.982500000000016,Rb4As4Mg4,0.0,-0.63,0.392,-36.319,12,3,5.949,41.644,27.333333333333332,6.0,1.4366666666666668
1341,1415,2.2974999999999,2.2674999999999272,2.2725000000000364,2.279166666666621,Ni4As4S4,0.094,-0.256,0.513,-67.023,12,3,4.282,31.649,25.666666666666668,10.333333333333334,2.223333333333333
1342,1416,4.522500000000036,3.1900000000000546,3.787499999999909,3.8333333333333335,Pd4As4S4,0.038,-0.343,0.888,-54.364,12,3,4.447,34.772,31.666666666666668,10.333333333333334,2.3200000000000003
1343,1417,0.4800000000000182,0.4925000000000068,0.4825000000000159,0.48500000000001364,Cr2S2,0.177,-0.44,0.0,-28.731,4,2,3.076,11.65,20.0,6.0,2.12
1344,1418,4.9500000000000455,4.967499999999973,4.9500000000000455,4.955833333333355,Pd4As4Se4,0.045,-0.326,0.739,-51.772,12,3,4.659,36.61,37.666666666666664,13.666666666666666,2.31
1345,1419,61.9,61.9,61.9,61.9,Cr2Se2,0.143,-0.324,0.0,-27.079,4,2,3.356,12.39,29.0,11.0,2.105
1346,1420,0.9974999999999454,0.9949999999998909,1.1899999999998272,1.0608333333332212,Pd4Te4As4,0.067,-0.271,0.495,-50.007,12,3,4.828,39.56,43.666666666666664,13.666666666666666,2.16
1347,1421,3.462500000000091,3.5,3.462500000000091,3.4750000000000605,Pt4As4S4,0.06,-0.4,1.313,-65.178,12,3,4.542,34.379,42.333333333333336,10.333333333333334,2.3466666666666667
1348,1422,5.097499999999968,5.097499999999968,5.284999999999968,5.159999999999968,As4Si4S4,0.006,-0.37,2.39,-61.007,12,3,2.94,47.73,21.0,8.333333333333334,2.22
1349,1423,0.4275000000000091,0.43250000000000455,0.5125000000000455,0.4575000000000197,Sn4As4S4,0.089,-0.216,1.725,-53.785,12,3,3.311,58.448,33.0,11.666666666666666,2.24
1350,1424,4.399999999999977,4.592499999999973,4.707499999999982,4.566666666666644,As4Se4Si4,0.0,-0.266,2.109,-57.375,12,3,3.315,49.939,27.0,11.666666666666666,2.2100000000000004
1351,1425,1.2825000000000273,1.2825000000000273,1.2825000000000273,1.2825000000000273,Sn4As4Se4,0.086,-0.202,1.539,-51.234,12,3,3.667,60.255,39.0,15.0,2.23
1352,1426,1.5074999999999363,1.5024999999999409,1.5024999999999409,1.504166666666606,Te4As4Si4,0.006,-0.061,1.574,-53.798,12,3,3.83,53.313,33.0,11.666666666666666,2.06
1353,1427,0.3224999999999909,0.3925000000000409,0.625,0.44666666666667726,Tl4Sn4As4,0.057,0.017,0.297,-44.667,12,3,3.851,55.056,54.666666666666664,14.0,2.06
1354,1428,1.2849999999998545,1.2699999999999818,1.2699999999999818,1.2749999999999393,Au4Br4S4,0.006,-0.1,1.12,-36.37,12,3,4.18,49.128,43.333333333333336,11.333333333333334,2.6933333333333334
1355,1429,0.3474999999998545,0.14750000000003638,0.2799999999999727,0.25833333333328784,Au4Se4Br4,0.0,-0.182,1.239,-34.974,12,3,4.224,52.101,49.333333333333336,14.666666666666666,2.6833333333333336
1356,1430,0.32749999999987267,0.25,0.30749999999989086,0.29499999999992116,Au4Te4Br4,0.0,-0.251,1.293,-34.689,12,3,4.349,56.926,55.333333333333336,14.666666666666666,2.5333333333333337
1357,1431,1.7250000000001364,1.712500000000091,1.712500000000091,1.7166666666667727,Au4S4Cl4,0.0,-0.178,1.414,-38.114,12,3,3.826,48.554,37.333333333333336,8.0,2.7600000000000002
1358,1432,0.2899999999999636,0.2899999999999636,0.2899999999999636,0.2899999999999636,I2Cu2,0.0,-0.166,1.787,-10.974,4,2,3.856,15.11,41.0,14.0,2.2800000000000002
1359,1433,0.5174999999999272,0.397499999999809,0.44249999999988177,0.45249999999987267,Au4Se4Cl4,0.0,-0.255,1.453,-36.657,12,3,3.862,51.398,43.333333333333336,11.333333333333334,2.75
1360,1434,1.0824999999999818,1.0824999999999818,1.0824999999999818,1.0824999999999818,Cu2O2,0.079,-0.457,0.001,-19.429,4,2,1.205,15.715,18.5,8.5,2.67
1361,1435,0.537499999999909,0.4399999999998272,0.4774999999999636,0.48499999999989996,Au4Te4Cl4,0.001,-0.319,1.36,-36.311,12,3,3.99,56.278,49.333333333333336,11.333333333333334,2.6
1362,1436,2.1075000000000728,1.0825000000002092,1.0625,1.417500000000094,Au4Cu4Se4,0.0,-0.13,0.768,-42.721,12,3,4.022,36.973,47.333333333333336,12.666666666666666,2.3299999999999996
1363,1437,0.25750000000005,0.25750000000005,0.44249999999999545,0.3191666666666985,Cu2S2,0.111,-0.101,0.0,-15.913,4,2,2.911,12.532,22.5,8.5,2.24
1364,1438,1.5974999999999682,1.7024999999999864,1.63250000000005,1.644166666666668,Cu2S2,0.127,-0.086,0.624,-15.851,4,2,2.357,18.144,22.5,8.5,2.24
1365,1439,1.5299999999999727,1.5299999999999727,1.5299999999999727,1.5299999999999727,Au4O4F4,0.0,-0.509,1.107,-45.476,12,3,2.729,40.249,32.0,8.0,3.3200000000000003
1366,1440,1.087500000000091,1.0699999999999363,1.0699999999999363,1.0758333333333212,Au4I4S4,0.065,-0.0,0.663,-34.752,12,3,4.627,50.259,49.333333333333336,11.333333333333334,2.5933333333333333
1367,1441,0.42250000000012733,0.20250000000010004,0.3100000000001728,0.31166666666680004,Au4I4Se4,0.0,-0.09,0.85,-33.443,12,3,4.699,53.288,55.333333333333336,14.666666666666666,2.5833333333333335
1368,1442,0.3450000000000273,0.24749999999994543,0.30750000000011823,0.3000000000000303,Au4Te4I4,0.0,-0.16,1.071,-33.168,12,3,4.787,58.169,61.333333333333336,14.666666666666666,2.4333333333333336
1369,1443,0.21749999999997272,0.36000000000001364,0.3149999999999409,0.29749999999997573,Cu2Se2,0.056,-0.086,0.0,-14.66,4,2,3.561,12.267,31.5,13.5,2.2249999999999996
1370,1444,1.1399999999999864,0.26749999999992724,0.32749999999998636,0.5783333333333,Cu2Se2,0.06,-0.081,0.0,-14.642,4,2,3.677,11.405,31.5,13.5,2.2249999999999996
1371,1445,1.3724999999999454,1.4449999999999363,1.3174999999999955,1.3783333333332923,Cu2Se2,0.069,-0.072,0.0,-14.606,4,2,3.199,13.78,31.5,13.5,2.2249999999999996
1372,1446,1.7099999999999227,1.9399999999999409,1.7899999999999636,1.8133333333332757,Cu2Se2,0.101,-0.04,0.447,-14.479,4,2,2.77,18.266,31.5,13.5,2.2249999999999996
1373,1447,0.6875,0.38999999999998636,0.7024999999999864,0.5933333333333243,Cu2Se2,0.158,0.017,0.0,-14.251,4,2,2.736,14.511,31.5,13.5,2.2249999999999996
1374,1448,0.599999999999909,0.599999999999909,0.599999999999909,0.599999999999909,Au4Se4Na4,0.011,-0.582,1.392,-38.662,12,3,4.113,51.384,41.333333333333336,9.333333333333334,2.0066666666666664
1375,1449,0.0775000000000432,0.07250000000004775,0.06499999999999773,0.07166666666669623,Sr2Cu2,0.129,0.005,0.0,-10.68,4,2,3.973,16.261,33.5,6.5,1.4249999999999998
1376,1450,1.36749999999995,0.4574999999999818,0.3949999999999818,0.7399999999999712,Te2Cu2,0.0,-0.089,0.0,-14.118,4,2,3.874,13.001,40.5,13.5,2.0
1377,1451,0.22000000000002728,0.2825000000000273,0.2800000000000864,0.2608333333333803,Te2Cu2,0.026,-0.063,0.0,-14.012,4,2,3.946,13.131,40.5,13.5,2.0
1378,1452,0.47499999999990905,0.4399999999998272,0.4399999999998272,0.45166666666652117,Co4Br4O4,0.17,-0.588,0.176,-66.806,12,3,3.314,32.795,23.333333333333332,10.666666666666666,2.76
1379,1453,0.8125,0.8400000000000318,0.8125,0.8216666666666773,Te2Cu2,0.087,-0.002,0.0,-13.77,4,2,3.522,15.125,40.5,13.5,2.0
1380,1454,0.7250000000000227,0.7250000000000227,0.7250000000000227,0.7250000000000227,Te2Cu2,0.181,0.092,0.0,-13.393,4,2,2.923,16.711,40.5,13.5,2.0
1381,1455,3.4099999999998545,3.3775000000000546,3.3775000000000546,3.388333333333321,Cu4Br4S4,0.032,-0.232,0.783,-40.139,12,3,4.32,41.86,26.666666666666668,11.333333333333334,2.48
1382,1456,0.3324999999999818,0.26500000000010004,0.3250000000000455,0.30750000000004246,Cu4Se4Br4,0.0,-0.261,0.831,-38.109,12,3,4.351,44.476,32.666666666666664,14.666666666666666,2.4699999999999998
1383,1457,0.2300000000000182,0.09500000000002728,0.20250000000010004,0.17583333333338183,Te4Cu4Br4,0.0,-0.25,0.742,-36.862,12,3,4.331,49.362,38.666666666666664,14.666666666666666,2.32
1384,1458,6.852499999999964,6.852499999999964,6.852499999999964,6.852499999999964,Ga4Br4S4,0.0,-0.774,2.909,-43.557,12,3,4.869,47.857,27.333333333333332,12.0,2.4499999999999997
1385,1459,1.5325000000000273,1.5325000000000273,1.5325000000000273,1.5325000000000273,Ge2F2,0.159,-1.467,0.118,-18.073,4,2,4.155,15.645,20.5,10.5,2.995
1386,1460,61.9,61.9,61.9,61.9,Hf2F2,0.177,-2.227,0.0,-27.093,4,2,5.294,8.422,40.5,5.5,2.64
1387,1461,7.347499999999968,7.264999999999986,7.264999999999986,7.29249999999998,Ga4Se4Br4,0.0,-0.744,2.647,-40.81,12,3,4.723,51.73,33.333333333333336,15.333333333333334,2.44
1388,1462,6.150000000000091,6.150000000000091,6.150000000000091,6.150000000000091,Te4Ga4Br4,0.002,-0.607,2.029,-38.054,12,3,4.459,58.66,39.333333333333336,15.333333333333334,2.29
1389,1463,1.9850000000000136,1.9699999999999704,1.9699999999999704,1.9749999999999848,In2F2,0.0,-1.763,2.513,-15.751,4,2,2.904,15.855,29.0,10.0,2.88
1390,1464,61.9,61.9,61.9,61.9,Hf4Br4S4,0.147,-1.35,0.0,-68.873,12,3,3.759,43.885,41.0,9.0,2.28
1391,1465,61.9,61.9,61.9,61.9,Hf4Se4Br4,0.105,-1.209,0.0,-64.807,12,3,3.639,45.567,47.0,12.333333333333334,2.27
1392,1466,0.775000000000091,0.775000000000091,0.775000000000091,0.775000000000091,Pd4I4Br4,0.068,-0.246,0.537,-30.489,12,3,5.113,62.99,44.666666666666664,14.666666666666666,2.606666666666667
1393,1467,0.9875000000001819,0.9875000000001819,0.9875000000001819,0.9875000000001819,In4Br4O4,0.053,-1.242,1.028,-52.791,12,3,6.802,31.988,30.666666666666668,12.0,2.7266666666666666
1394,1468,7.592499999999973,7.592499999999973,7.592499999999973,7.592499999999973,In4Br4S4,0.0,-0.719,2.571,-42.332,12,3,4.674,54.047,33.333333333333336,12.0,2.44
1395,1469,6.802500000000009,6.802500000000009,6.802500000000009,6.802500000000009,In4Se4Br4,0.0,-0.707,2.253,-39.807,12,3,4.588,58.747,39.333333333333336,15.333333333333334,2.43
1396,1470,7.165000000000077,7.165000000000077,7.165000000000077,7.165000000000077,In4Te4Br4,0.0,-0.596,2.024,-37.364,12,3,4.431,65.615,45.333333333333336,15.333333333333334,2.28
1397,1471,1.0599999999999454,1.0550000000000637,1.0550000000000637,1.0566666666666908,Ni4Br4S4,0.066,-0.288,0.556,-55.095,12,3,3.283,41.977,26.333333333333332,11.0,2.4833333333333334
1398,1472,1.3949999999999818,1.3949999999999818,1.3949999999999818,1.3949999999999818,Mo2F2,0.151,-1.452,0.0,-31.388,4,2,4.769,7.532,25.5,6.5,3.0700000000000003
1399,1473,4.294999999999845,4.294999999999845,4.375,4.321666666666563,Y4Br4O4,0.0,-2.998,4.565,-81.577,12,3,5.639,29.509,27.333333333333332,8.666666666666666,2.5399999999999996
1400,1474,0.17250000000001364,0.17250000000001364,0.17250000000001364,0.17250000000001364,Na2F2,0.076,-2.741,5.59,-16.753,4,2,2.398,10.422,10.0,4.0,2.455
1401,1475,61.9,61.9,61.9,61.9,Ti4Br4S4,0.122,-1.251,0.0,-64.426,12,3,3.64,40.709,24.333333333333332,9.0,2.36
1402,1476,61.9,61.9,61.9,61.9,Zr4Br4S4,0.141,-1.451,0.0,-69.677,12,3,3.782,44.83,30.333333333333332,9.0,2.29
1403,1477,61.9,61.9,61.9,61.9,Ti4Se4Br4,0.1,-1.13,0.063,-60.589,12,3,3.507,42.793,30.333333333333332,12.333333333333334,2.35
1404,1478,61.9,61.9,61.9,61.9,Zr4Se4Br4,0.102,-1.324,0.0,-65.773,12,3,3.664,46.609,36.333333333333336,12.333333333333334,2.28
1405,1479,0.6449999999999818,0.6575000000000273,0.6924999999998818,0.6649999999999636,Te4Ti4Br4,0.082,-0.877,0.09,-56.446,12,3,3.633,45.997,36.333333333333336,12.333333333333334,2.1999999999999997
1406,1480,1.5299999999999727,1.5299999999999727,1.5299999999999727,1.5299999999999727,Os2F2,0.136,-0.94,0.0,-29.314,4,2,5.828,6.5,42.5,7.5,3.09
1407,1481,3720000.0,2537500.0,3155000.0,3137500.0,Y4Te4Br4,0.034,-1.614,0.355,-57.288,12,3,4.237,61.87,42.0,12.0,2.0933333333333333
1408,1482,61.9,61.9,61.9,61.9,Zr4Te4Br4,0.082,-1.061,0.0,-61.496,12,3,3.796,49.483,42.333333333333336,12.333333333333334,2.1300000000000003
1409,1483,4.447499999999991,4.447499999999991,4.447499999999991,4.447499999999991,Cu4Cl4O4,0.1,-0.34,0.313,-46.422,12,3,3.656,33.875,18.0,8.0,2.8333333333333335
1410,1484,1.462500000000091,1.462500000000091,1.462500000000091,1.462500000000091,Pd2F2,0.054,-0.91,0.865,-14.452,4,2,3.882,9.41,27.5,8.5,3.09
1411,1485,3.8675000000000637,3.855000000000018,3.855000000000018,3.8591666666667,Cu4S4Cl4,0.03,-0.328,0.822,-42.094,12,3,3.979,41.39,20.666666666666668,8.0,2.546666666666667
1412,1486,1.517500000000041,1.517500000000041,1.517500000000041,1.517500000000041,Pt2F2,0.0,-0.872,0.811,-19.368,4,2,3.793,9.966,43.5,8.5,3.13