,ind,max_valorX,max_valorY,max_valorZ,media,formula,Ehull,HF,Gap,Energy,natoms,nspecies,thickness,uc_area,average_atomic_number,average_valence_number,average_electronegativity
1797,1903,0.9275000000000091,0.9275000000000091,0.9275000000000091,0.9275000000000091,Ta2Br4O2,0.0,-1.659,0.835,-49.492,8,3,4.249,27.283,37.75,11.25,2.715
1798,1904,1.4325000000000045,1.4325000000000045,1.4325000000000045,1.4325000000000045,Ta2Cl4O2,0.0,-1.903,0.805,-52.244,8,3,3.93,26.007,28.75,6.25,2.815
1799,1905,0.6449999999999818,0.5475000000000136,0.4975000000000591,0.5633333333333516,Ta2I4O2,0.0,-1.348,0.861,-46.581,8,3,4.649,29.415,46.75,11.25,2.565
1800,1906,1.25750000000005,1.3000000000000682,1.2775000000000318,1.2783333333333833,In6I6,0.058,-0.429,1.445,-30.598,12,2,6.296,60.562,51.0,15.0,2.22
1801,1907,1.1675000000000182,1.1750000000000682,1.1675000000000182,1.1700000000000348,Pd2Se2Cl4,0.091,-0.346,0.64,-24.513,8,3,3.29,34.441,28.5,10.0,2.7675
1802,1908,0.25750000000005,0.25750000000005,0.3550000000000182,0.2900000000000394,I6Na6,0.032,-1.264,3.451,-31.886,12,2,6.724,41.057,32.0,9.0,1.795
1803,1909,1.2225000000000819,1.2225000000000819,1.2225000000000819,1.2225000000000819,Te2V4Se2,0.094,-0.394,0.0,-50.625,8,3,3.929,26.93,33.0,10.5,1.9774999999999998
1804,1910,3.207499999999982,3.2174999999999727,3.207499999999982,3.210833333333312,Pb6O6,0.026,-1.137,2.634,-66.937,12,2,2.78,46.376,45.0,10.0,2.8850000000000002
1805,1911,1.5375000000001364,1.5650000000000546,1.5550000000000637,1.5525000000000848,Sn6O6,0.036,-1.268,1.952,-70.297,12,2,4.083,42.332,29.0,10.0,2.6999999999999997
1806,1912,1.7175000000000864,1.7175000000000864,1.7175000000000864,1.7175000000000864,Pb6S6,0.074,-0.494,0.473,-52.948,12,2,5.817,36.064,49.0,10.0,2.455
1807,1913,2.3575000000000728,2.3575000000000728,2.3575000000000728,2.3575000000000728,Pb6Te6,0.08,-0.341,0.279,-45.873,12,2,6.48,42.922,67.0,15.0,2.2150000000000003
1808,1914,1.1575000000000273,1.1400000000001,1.1400000000001,1.1458333333334092,Ru3S3Cl6,0.028,-0.503,0.452,-57.369,12,3,5.348,30.449,23.5,7.0,2.775
1809,1916,4.052499999999782,4.052499999999782,4.052499999999782,4.052499999999782,K4As4O8,0.0,-1.556,4.167,-89.422,16,3,5.194,41.419,17.0,7.0,2.4699999999999998
1810,1917,0.7000000000000455,0.7150000000001455,0.6525000000001455,0.6891666666667788,K4As4S8,0.0,-0.648,2.472,-66.526,16,3,5.887,61.656,21.0,7.0,2.04
1811,1918,1.0299999999999727,0.7825000000000273,0.7850000000000819,0.8658333333333607,As4Li4O8,0.0,-1.654,4.006,-93.678,16,3,5.102,27.294,13.0,7.0,2.51
1812,1919,61.9,61.9,61.9,61.9,As4Li4O8,0.003,-1.652,4.052,-93.631,16,3,5.101,27.625,13.0,7.0,2.51
1813,1920,4.809999999999945,4.809999999999945,4.809999999999945,4.809999999999945,As4S8Li4,0.018,-0.61,1.25,-68.593,16,3,7.996,29.367,17.0,7.0,2.08
1814,1921,0.7549999999998818,0.41249999999990905,0.4600000000000364,0.5424999999999424,As4S8Li4,0.02,-0.608,1.254,-68.571,16,3,8.03,29.373,17.0,7.0,2.08
1815,1922,0.8325000000002092,0.7350000000001273,0.7375000000001819,0.7683333333335062,As4Na4O8,0.0,-1.535,4.36,-89.443,16,3,5.28,34.124,15.0,7.0,2.4975
1816,1923,4.375,4.375,4.375,4.375,As4Na4O8,0.0,-1.535,4.333,-89.439,16,3,5.248,34.335,15.0,7.0,2.4975
1817,1924,1.9774999999999636,1.9774999999999636,2.1700000000000728,2.0416666666666665,Bi4Li4O8,0.0,-1.525,2.375,-91.655,16,3,5.821,27.213,25.5,7.0,2.4699999999999998
1818,1925,1.1024999999999636,0.6324999999999363,0.6800000000000637,0.8049999999999878,Bi4Na4O8,0.0,-1.41,2.602,-87.48,16,3,6.44,29.866,27.5,7.0,2.4575
1819,1926,61.9,61.9,61.9,61.9,LiC12,0.0,-0.017,0.0,-112.745,13,2,3.839,15.994,5.769230769230769,3.769230769230769,2.4292307692307693
1820,1927,61.9,61.9,61.9,61.9,NaC12,0.012,0.006,0.0,-111.869,13,2,4.574,15.994,6.384615384615385,3.769230769230769,2.425384615384615
1821,1928,0.9149999999999636,0.9149999999999636,0.9149999999999636,0.9149999999999636,Nb4Te8Co4,0.004,-0.404,0.0,-106.326,16,3,4.694,49.092,43.0,11.5,1.9200000000000002
1822,1929,1.1050000000000182,1.0750000000000455,1.175000000000182,1.1183333333334151,K4P4S8,0.014,-0.651,2.494,-69.382,16,3,5.586,59.204,16.5,4.5,2.0425
1823,1930,4.597500000000082,4.632499999999936,4.597500000000082,4.6091666666667,Sb4K4O8,0.001,-1.564,3.569,-88.514,16,3,5.757,43.795,21.5,7.0,2.4375
1824,1931,0.6974999999999909,0.712500000000091,0.7150000000001455,0.7083333333334091,Sb4K4S8,0.066,-0.703,2.662,-66.371,16,3,6.264,64.786,25.5,7.0,2.0075
1825,1932,1.9974999999999454,2.042500000000018,2.019999999999982,2.019999999999982,K4Se4O8,0.0,-1.263,1.929,-80.007,16,3,5.182,48.658,17.25,7.25,2.5625
1826,1933,2.212500000000091,2.212500000000091,2.212500000000091,2.212500000000091,K4Se4S8,0.061,-0.461,1.369,-58.813,16,3,5.816,69.921,21.25,7.25,2.1325
1827,1936,0.8849999999999909,1.0149999999998727,0.6775000000000091,0.8591666666666242,P4S8Li4,0.067,-0.615,1.52,-71.476,16,3,7.895,28.675,12.5,4.5,2.0825
1828,1937,0.8274999999998727,0.8774999999998272,0.8374999999998636,0.8474999999998545,Sb4Li4O8,0.0,-1.681,3.248,-93.08,16,3,5.414,28.482,17.5,7.0,2.4775
1829,1938,5.477500000000191,5.625,5.485000000000127,5.5291666666667725,Sb4Li4O8,0.003,-1.678,3.297,-93.029,16,3,5.405,29.028,17.5,7.0,2.4775
1830,1939,0.4049999999999727,1.0225000000000364,0.9275000000000091,0.785000000000006,Sb4S8Li4,0.011,-0.671,1.855,-68.546,16,3,6.715,40.747,21.5,7.0,2.0475
1831,1940,3.544999999999959,3.5674999999999955,3.544999999999959,3.5524999999999713,Sb4S8Li4,0.017,-0.665,1.707,-68.447,16,3,6.882,39.505,21.5,7.0,2.0475
1832,1941,0.8324999999999818,0.5950000000000273,0.6125000000001819,0.6800000000000637,Sb4Na4O8,0.0,-1.561,3.541,-88.83,16,3,5.978,32.595,19.5,7.0,2.465
1833,1942,4.789999999999964,4.877500000000055,4.789999999999964,4.819166666666661,Sb4Na4O8,0.0,-1.561,3.522,-88.827,16,3,6.007,32.312,19.5,7.0,2.465
1834,1943,4.164999999999964,4.164999999999964,4.597499999999968,4.3091666666666315,Sb4Na4S8,0.037,-0.672,1.529,-66.235,16,3,8.665,34.51,23.5,7.0,2.035
1835,1944,3.1175000000000637,3.1175000000000637,3.1175000000000637,3.1175000000000637,Sb4Na4S8,0.037,-0.672,1.527,-66.23,16,3,8.666,34.541,23.5,7.0,2.035
1836,1945,0.46500000000003183,0.5825000000000387,0.5225000000000364,0.523333333333369,AsS2,0.154,0.038,0.0,-12.706,3,2,2.926,10.449,21.666666666666668,9.0,2.4466666666666668
1837,1946,0.402499999999975,0.3424999999999727,0.2950000000000159,0.3466666666666545,AsSe2,0.098,0.0,0.0,-11.629,3,2,3.151,11.488,33.666666666666664,15.666666666666666,2.4266666666666663
1838,1947,0.27000000000003865,0.27000000000003865,0.3025000000000091,0.28083333333336213,Te2As,0.11,0.096,0.0,-10.784,3,2,3.59,12.752,45.666666666666664,15.666666666666666,2.126666666666667
1839,1948,1.5249999999999773,1.5199999999999818,1.5199999999999818,1.521666666666647,CrCoSe2,0.145,-0.277,0.0,-25.711,4,3,3.195,12.359,29.75,11.75,2.16
1840,1949,0.012499999999988631,3.3624999999999545,3.474999999999966,2.283333333333303,CoO2H,0.195,-0.891,0.106,-25.365,4,3,2.952,7.181,11.0,5.5,2.74
1841,1950,0.4574999999999818,0.5649999999999977,0.7299999999999613,0.584166666666647,MnCoS2,0.047,-0.454,0.0,-27.919,4,3,2.936,11.764,21.0,7.0,2.1475
1842,1951,2.5950000000000273,1.9150000000000205,1.795000000000016,2.101666666666688,Te2CrMn,0.189,-0.002,0.0,-25.542,4,3,3.797,12.554,38.25,11.25,1.8525
1843,1952,0.32499999999998863,0.36250000000001137,0.16500000000002046,0.2841666666666735,AuI2,0.105,0.039,0.0,-5.969,3,2,3.561,17.529,61.666666666666664,15.0,2.62
1844,1953,0.6999999999999886,1.2925000000000182,1.6025000000000205,1.1983333333333424,CrNiSe2,0.096,-0.334,0.0,-24.956,4,3,3.144,12.681,30.0,12.0,2.1675
1845,1954,2.222500000000025,2.232500000000016,2.0124999999999886,2.155833333333343,Te2MnFe,0.084,-0.066,0.0,-25.43,4,3,3.652,13.386,38.75,11.75,1.895
1846,1955,0.8375000000000341,0.7750000000000341,0.6374999999999886,0.750000000000019,Te2FeNi,0.128,-0.054,0.0,-22.915,4,3,3.335,14.0,39.5,12.5,1.985
1847,1956,0.24249999999994998,0.23999999999995225,0.23999999999995225,0.24083333333328483,FeBr2O,0.137,-0.479,0.0,-19.25,4,3,4.733,9.894,26.0,12.0,2.7975
1848,1957,0.5199999999999818,0.5199999999999818,0.5199999999999818,0.5199999999999818,FeCl2O,0.155,-0.643,0.0,-20.308,4,3,4.357,9.762,17.0,7.0,2.8975
1849,1958,2.447499999999991,1.7099999999999795,1.7099999999999795,1.9558333333333167,MnSe2Li,0.176,-0.564,0.0,-20.829,4,3,3.018,15.279,24.0,10.0,1.9074999999999998
1850,1959,1.3975000000000364,1.3975000000000364,1.3975000000000364,1.3975000000000364,MnNiS2,0.004,-0.454,0.0,-26.936,4,3,2.99,12.065,21.25,7.25,2.1550000000000002
1851,1960,0.375,0.375,0.375,0.375,BaBr2,0.056,-2.21,4.902,-11.627,3,2,3.114,21.333,42.0,12.0,2.27
1852,1961,0.3774999999999977,0.3774999999999977,0.3774999999999977,0.3774999999999977,BaBr2,0.167,-2.099,4.157,-11.295,3,2,3.674,19.068,42.0,12.0,2.27
1853,1962,0.4449999999999932,0.4449999999999932,0.4449999999999932,0.4449999999999932,BaCl2,0.108,-2.503,5.618,-12.907,3,2,2.769,20.066,30.0,5.333333333333333,2.4033333333333333
1854,1963,0.6924999999999955,0.7250000000000227,0.7375000000000114,0.7183333333333431,RhMnS2,0.067,-0.431,0.0,-26.743,4,3,3.017,12.811,25.5,7.0,2.2475
1855,1964,1.5774999999999864,1.5774999999999864,1.5774999999999864,1.5774999999999864,RhTe2Mn,0.196,-0.142,0.0,-23.841,4,3,3.174,16.05,43.5,12.0,2.0075000000000003
1856,1965,0.7375000000000114,0.8575000000000159,0.7925000000000182,0.7958333333333485,VMnS2,0.079,-0.681,0.0,-29.12,4,3,2.695,14.473,20.0,6.0,2.085
1857,1966,1.5674999999999955,1.5749999999999886,1.9975000000000023,1.7133333333333287,VMnSe2,0.068,-0.474,0.0,-27.103,4,3,3.547,13.059,29.0,11.0,2.07
1858,1967,0.34749999999996817,0.34749999999996817,0.34749999999996817,0.34749999999996817,BaI2,0.021,-1.816,3.873,-10.232,3,2,3.572,23.344,54.0,12.0,2.07
1859,1968,0.3450000000000273,0.3450000000000273,0.3450000000000273,0.3450000000000273,BaI2,0.105,-1.732,3.332,-9.98,3,2,4.089,20.978,54.0,12.0,2.07
1860,1969,1.3874999999999886,1.4524999999999864,1.3874999999999886,1.4091666666666545,Te2VNi,0.014,-0.28,0.0,-23.302,4,3,3.337,15.684,38.75,11.75,1.935
1861,1970,1.1949999999999932,1.1750000000000114,1.150000000000034,1.1733333333333462,Fe2SeS,0.0,-0.39,0.0,-27.204,4,3,2.694,13.394,25.5,9.5,2.1975
1862,1971,0.7650000000000432,0.7775000000000318,0.7650000000000432,0.7691666666667061,TeMn2S,0.147,-0.172,0.0,-27.406,4,3,3.43,12.706,29.5,9.0,1.945
1863,1972,0.4075000000000273,0.42500000000001137,0.45999999999997954,0.4308333333333394,TeFe2Se,0.1,-0.108,0.0,-25.202,4,3,3.807,12.199,34.5,12.0,2.0774999999999997
1864,1973,61.9,61.9,61.9,61.9,HfAgBr2S2,0.143,-0.868,0.0,-26.879,6,4,5.997,19.134,36.833333333333336,10.166666666666666,2.3850000000000002
1865,1974,1.240000000000009,1.240000000000009,1.240000000000009,1.240000000000009,I2MnAlS2,0.047,-0.653,0.0,-28.488,6,4,6.009,18.056,29.333333333333332,9.333333333333334,2.2733333333333334
1866,1975,0.29249999999996135,0.2799999999999727,0.25499999999999545,0.27583333333330984,CaBr2,0.0,-2.094,4.863,-11.464,3,2,3.121,16.003,30.0,12.0,2.3066666666666666
1867,1976,0.26249999999998863,0.26249999999998863,0.26249999999998863,0.26249999999998863,CaBr2,0.129,-1.965,4.128,-11.077,3,2,3.514,14.692,30.0,12.0,2.3066666666666666
1868,1977,1.892500000000041,1.8725000000000591,1.8725000000000591,1.8791666666667197,AuInS2Cl2,0.012,-0.605,1.793,-21.252,6,4,3.515,25.808,32.333333333333336,8.333333333333334,2.6333333333333333
1869,1978,0.3025000000000091,0.3050000000000068,0.3025000000000091,0.30333333333334167,CaCl2,0.01,-2.421,5.784,-12.846,3,2,2.804,14.826,18.0,5.333333333333333,2.44
1870,1979,0.3025000000000091,0.3025000000000091,0.3025000000000091,0.3025000000000091,CaCl2,0.164,-2.267,4.771,-12.383,3,2,3.232,13.484,18.0,5.333333333333333,2.44
1871,1980,61.9,61.9,61.9,61.9,CaCl2,0.192,-2.239,5.53,-12.299,3,2,2.706,20.417,18.0,5.333333333333333,2.44
1872,1981,0.30750000000000455,0.28249999999997044,0.2950000000000159,0.294999999999997,I2Ca,0.0,-1.666,3.537,-9.967,3,2,3.537,17.919,42.0,12.0,2.106666666666667
1873,1982,0.29000000000002046,0.23250000000001592,0.25499999999999545,0.25916666666667726,I2Ca,0.108,-1.559,2.946,-9.645,3,2,3.898,16.657,42.0,12.0,2.106666666666667
1874,1985,2.6825000000000045,2.6825000000000045,2.6825000000000045,2.6825000000000045,BiScCl2O2,0.061,-2.103,2.371,-35.77,6,4,5.563,14.41,25.666666666666668,7.333333333333333,2.763333333333333
1875,1988,3.7024999999999864,3.7024999999999864,3.7024999999999864,3.7024999999999864,Ca2BrS2Cl,0.089,-1.768,2.607,-26.156,6,4,7.167,16.392,20.666666666666668,6.666666666666667,2.2133333333333334
1876,1991,3.472499999999968,3.4700000000000273,3.4700000000000273,3.4708333333333408,Ge2Se2BrCl,0.051,-0.434,1.719,-21.968,6,4,2.893,34.385,30.666666666666668,14.0,2.5399999999999996
1877,1992,61.9,61.9,61.9,61.9,Hf2BrS2Cl,0.0,-1.582,0.0,-36.027,6,4,5.444,18.329,38.0,7.333333333333333,2.3133333333333335
1878,1995,1.3975000000000364,1.3975000000000364,1.3975000000000364,1.3975000000000364,In2BrS2Cl,0.013,-0.761,1.849,-21.618,6,4,5.837,20.336,30.333333333333332,10.333333333333334,2.473333333333333
1879,1996,3.5799999999999272,3.412499999999909,3.412499999999909,3.4683333333332484,Ir2BrS2Cl,0.053,-0.396,1.089,-32.452,6,4,2.824,22.48,39.666666666666664,9.0,2.6133333333333333
1880,1997,1.849999999999909,1.849999999999909,1.849999999999909,1.849999999999909,Ti2BrClN2,0.0,-1.501,0.617,-42.459,6,4,5.376,13.147,18.333333333333332,7.0,2.5466666666666664
1881,1998,0.4375,0.4375,0.4375,0.4375,CoBr2,0.009,-0.352,0.174,-12.454,3,2,2.886,15.056,32.333333333333336,14.333333333333334,2.6
1882,1999,0.16250000000002274,0.20499999999998408,0.15750000000002728,0.17500000000001137,CoBr2,0.023,-0.338,0.348,-12.412,3,2,2.869,12.062,32.333333333333336,14.333333333333334,2.6
1883,2000,0.7624999999999886,0.7624999999999886,0.7624999999999886,0.7624999999999886,CoCl2,0.01,-0.613,0.168,-13.638,3,2,2.663,13.558,20.333333333333332,7.666666666666667,2.733333333333333
1884,2001,0.2674999999999841,0.2674999999999841,0.2674999999999841,0.2674999999999841,CoCl2,0.021,-0.603,0.351,-13.606,3,2,2.663,10.836,20.333333333333332,7.666666666666667,2.733333333333333
1885,2002,2.3575000000000728,2.3575000000000728,2.3575000000000728,2.3575000000000728,Sc2BrS2Cl,0.0,-1.974,2.12,-32.692,6,4,5.699,19.055,21.0,7.0,2.3333333333333335
1886,2003,1.509999999999991,1.5325000000000273,1.5125000000000455,1.5183333333333546,Ti2BrS2Cl,0.098,-1.354,0.0,-33.028,6,4,3.252,24.255,21.333333333333332,7.333333333333333,2.393333333333333
1887,2004,61.9,61.9,61.9,61.9,CoH2,0.104,0.104,0.0,-14.567,3,2,1.937,5.152,9.666666666666666,3.6666666666666665,2.0933333333333333
1888,2005,5.15500000000003,5.15500000000003,5.15500000000003,5.15500000000003,IBrAl2S2,0.02,-0.987,1.233,-24.619,6,4,6.063,22.476,24.333333333333332,8.666666666666666,2.3333333333333335
1889,2006,0.30750000000000455,0.2925000000000182,0.19249999999999545,0.2641666666666727,I2Co,0.072,-0.051,0.0,-11.339,3,2,3.093,17.488,44.333333333333336,14.333333333333334,2.4
1890,2007,0.22750000000002046,0.2925000000000182,0.2599999999999909,0.26000000000000983,I2Co,0.112,-0.01,0.0,-11.217,3,2,2.919,13.069,44.333333333333336,14.333333333333334,2.4
1891,2008,1.0500000000000682,1.0500000000000682,1.0500000000000682,1.0500000000000682,ICr2BrS2,0.038,-0.677,0.841,-34.097,6,4,3.164,23.08,28.0,9.666666666666666,2.35
1892,2009,0.537499999999909,0.537499999999909,0.537499999999909,0.537499999999909,In2ISe2Br,0.049,-0.584,1.188,-19.058,6,4,6.223,22.723,42.333333333333336,15.333333333333334,2.3800000000000003
1893,2010,1.6449999999999818,1.6449999999999818,1.6449999999999818,1.6449999999999818,Ir2IBrS2,0.023,-0.329,0.26,-31.742,6,4,5.856,17.006,45.666666666666664,10.666666666666666,2.53
1894,2011,0.4549999999999841,0.4549999999999841,0.4549999999999841,0.4549999999999841,CoO2,0.0,-0.913,0.0,-21.217,3,2,1.88,6.903,14.333333333333334,7.0,2.92
1895,2012,0.8550000000000182,0.4199999999999591,0.43250000000000455,0.5691666666666606,Nb2ISe2Br,0.055,-0.811,0.0,-35.55,6,4,5.725,19.143,39.666666666666664,12.666666666666666,2.3200000000000003
1896,2013,0.7549999999999955,0.7549999999999955,0.6725000000000136,0.7275000000000015,INi2Se2Br,0.001,-0.288,0.0,-26.252,6,4,5.61,17.749,35.333333333333336,14.333333333333334,2.4233333333333333
1897,2014,1.3850000000001046,1.3850000000001046,1.3850000000001046,1.3850000000001046,IV2BrS2,0.045,-0.826,0.302,-33.222,6,4,5.647,17.817,27.666666666666668,9.333333333333334,2.34
1898,2015,0.8100000000000591,0.6924999999999955,0.6924999999999955,0.7316666666666833,Zr2ISe2Br,0.0,-1.326,0.0,-32.789,6,4,5.882,20.262,39.333333333333336,12.333333333333334,2.23
1899,2016,0.40999999999996817,0.26499999999998636,0.2674999999999841,0.3141666666666462,Te2Co,0.16,-0.063,0.0,-14.826,3,2,2.99,11.303,43.666666666666664,13.666666666666666,2.026666666666667
1900,2017,0.9424999999999955,1.0199999999999818,0.8824999999999932,0.9483333333333235,CrAs2,0.188,0.04,0.0,-18.615,3,2,3.611,7.614,30.0,12.0,2.006666666666667
1901,2018,0.7875000000000227,0.8149999999999977,0.7875000000000227,0.7966666666666811,I2Cr,0.192,-0.22,0.0,-13.027,3,2,3.389,17.611,43.333333333333336,13.333333333333334,2.3266666666666667
1902,2019,1.1125000000000114,1.1125000000000114,1.1125000000000114,1.1125000000000114,CrO2,0.143,-1.718,0.0,-24.812,3,2,1.919,7.334,13.333333333333334,6.0,2.8466666666666662
1903,2020,1.1999999999999886,1.1999999999999886,1.1999999999999886,1.1999999999999886,CrO2,0.168,-1.693,0.416,-24.735,3,2,2.337,6.011,13.333333333333334,6.0,2.8466666666666662
1904,2021,0.19000000000005457,0.3625000000000682,0.15250000000003183,0.23500000000005153,Au2ISe2Cl,0.111,-0.062,0.048,-16.859,6,4,4.012,32.104,49.333333333333336,13.0,2.6666666666666665
1905,2022,61.9,61.9,61.9,61.9,Hf2IS2Cl,0.001,-1.469,0.0,-35.246,6,4,5.639,18.68,41.0,7.333333333333333,2.263333333333333
1906,2023,0.22000000000002728,0.27000000000003865,0.25,0.24666666666668866,CrS2,0.0,-0.673,0.877,-19.583,3,2,2.948,8.043,18.666666666666668,6.0,2.2733333333333334
1907,2024,1.1549999999999727,1.1549999999999727,1.1549999999999727,1.1549999999999727,Zr2IS2Cl,0.003,-1.564,0.0,-35.607,6,4,5.683,19.01,30.333333333333332,7.333333333333333,2.2733333333333334
1908,2025,0.3275000000000432,0.3199999999999932,0.3675000000000068,0.33833333333334775,CrSe2,0.0,-0.486,0.685,-17.832,3,2,3.148,8.925,30.666666666666668,12.666666666666666,2.2533333333333334
1909,2026,0.4275000000000091,0.4275000000000091,0.32499999999998863,0.3933333333333356,Te2Cr,0.108,-0.106,0.453,-16.136,3,2,3.412,10.429,42.666666666666664,12.666666666666666,1.9533333333333334
1910,2027,1.6700000000000728,1.5575000000000045,1.5575000000000045,1.5950000000000273,RhI2CoSe2,0.021,-0.309,0.0,-27.153,6,4,5.988,17.978,41.0,14.0,2.43
1911,2028,0.4300000000000068,0.47750000000002046,0.3849999999999909,0.4308333333333394,CuBr2,0.034,-0.29,0.0,-7.717,3,2,3.062,13.674,33.0,15.0,2.606666666666667
1912,2029,0.6299999999999955,0.6299999999999955,0.6299999999999955,0.6299999999999955,CuCl2,0.061,-0.448,0.0,-8.59,3,2,2.784,12.689,21.0,8.333333333333334,2.74
1913,2030,0.4275000000000091,0.42500000000001137,0.18999999999999773,0.3475000000000061,I2Cu,0.0,-0.129,0.0,-7.02,3,2,3.322,15.547,45.0,15.0,2.4066666666666667
1914,2031,1.8874999999999318,1.8874999999999318,1.8874999999999318,1.8874999999999318,RhCuBr2S2,0.095,-0.311,0.0,-24.017,6,4,5.769,16.484,29.333333333333332,11.0,2.5433333333333334
1915,2032,0.5475000000000136,0.41250000000002274,0.41250000000002274,0.4575000000000197,FeBr2MgO2,0.054,-1.28,0.137,-31.758,6,4,3.653,21.059,20.666666666666668,9.333333333333334,2.6566666666666667
1916,2033,4.357500000000016,4.387499999999989,4.357500000000016,4.367500000000007,InGaBr2S2,0.017,-0.734,1.639,-21.397,6,4,5.626,23.382,30.333333333333332,12.0,2.445
1917,2034,0.7400000000000091,0.7400000000000091,0.7400000000000091,0.7400000000000091,Te2Cu,0.195,0.136,0.0,-9.678,3,2,2.897,13.28,44.333333333333336,14.333333333333334,2.033333333333333
1918,2035,3.4300000000000637,3.4300000000000637,3.4300000000000637,3.4300000000000637,IrI2GaS2,0.089,-0.407,0.437,-25.735,6,4,6.124,17.893,41.0,11.333333333333334,2.415