,ind,max_valorX,max_valorY,max_valorZ,media,formula,Ehull,HF,Gap,Energy,natoms,nspecies,thickness,uc_area,average_atomic_number,average_valence_number,average_electronegativity
942,982,0.0025000000000545697,0.07749999999987267,0.03999999999996362,0.03999999999996362,Y4C3,0.187,-0.156,0.0,-47.519,7,2,8.342,11.452,24.857142857142858,3.4285714285714284,1.7899999999999998
943,983,0.5574999999999477,0.8649999999999523,0.7074999999999818,0.7099999999999606,Zr4C3,0.197,-0.554,0.0,-61.146,7,2,7.804,9.666,25.428571428571427,4.0,1.8528571428571428
944,984,0.2999999999999545,0.5599999999999454,0.2999999999999545,0.38666666666661814,Ti2Cl2N2,0.001,-1.574,0.62,-43.101,6,3,5.245,12.952,15.333333333333334,5.333333333333333,2.58
945,985,0.17250000000001364,0.30750000000000455,0.25499999999999545,0.24500000000000455,Co3Se4,0.066,-0.229,0.0,-40.224,7,2,7.704,10.931,31.0,13.0,2.262857142857143
946,986,0.1875,0.22749999999996362,0.24749999999994543,0.22083333333330302,Te4Co3,0.048,-0.143,0.0,-38.503,7,2,7.918,12.801,41.285714285714285,13.0,2.005714285714286
947,987,61.9,61.9,61.9,61.9,Cr3S4,0.05,-0.655,0.0,-49.12,7,2,8.445,10.275,19.428571428571427,6.0,2.185714285714286
948,988,0.6375000000000455,0.6725000000000136,0.6649999999999636,0.6583333333333409,Cr3Se4,0.05,-0.484,0.0,-45.548,7,2,8.916,11.701,29.714285714285715,11.714285714285714,2.1685714285714286
949,989,0.7574999999999363,0.7574999999999363,0.7574999999999363,0.7574999999999363,Te4Cr3,0.053,-0.176,0.0,-42.28,7,2,9.324,13.809,40.0,11.714285714285714,1.9114285714285713
950,990,0.5850000000000364,0.5850000000000364,0.5850000000000364,0.5850000000000364,Cu3Br4,0.0,-0.348,0.0,-19.801,7,2,3.441,27.069,32.42857142857143,14.428571428571429,2.505714285714286
951,991,0.32000000000005,0.32000000000005,0.32000000000005,0.32000000000005,Zr2Cl2N2,0.0,-1.885,1.923,-46.393,6,3,6.237,11.338,21.333333333333332,5.333333333333333,2.5100000000000002
952,992,1.517500000000041,1.517500000000041,1.517500000000041,1.517500000000041,Zr2Cl2N2,0.025,-1.86,1.849,-46.244,6,3,5.663,14.635,21.333333333333332,5.333333333333333,2.5100000000000002
953,993,1.7649999999999864,1.7649999999999864,1.7649999999999864,1.7649999999999864,Ni2S2Cl2,0.015,-0.455,0.0,-28.954,6,3,4.998,15.826,20.333333333333332,7.666666666666667,2.5500000000000003
954,994,0.6499999999999773,0.6499999999999773,0.6499999999999773,0.6499999999999773,Ni2Se2Cl2,0.0,-0.46,0.0,-27.789,6,3,5.098,17.118,26.333333333333332,11.0,2.54
955,995,0.6424999999999272,0.6424999999999272,0.6424999999999272,0.6424999999999272,Te2Ni2Cl2,0.012,-0.428,0.0,-27.043,6,3,5.14,18.972,32.333333333333336,11.0,2.39
956,996,1.5149999999999864,1.5149999999999864,1.5149999999999864,1.5149999999999864,Rh2Cl2O2,0.07,-0.651,0.04,-32.018,6,3,5.079,13.394,23.333333333333332,7.333333333333333,2.9599999999999995
957,997,61.9,61.9,61.9,61.9,In3S4,0.038,-0.534,0.0,-28.342,7,2,9.323,13.051,30.142857142857142,9.0,2.237142857142857
958,998,2.2250000000000227,2.2250000000000227,2.2250000000000227,2.2250000000000227,In3Se4,0.025,-0.51,0.0,-25.787,7,2,9.844,14.18,40.42857142857143,14.714285714285714,2.2199999999999998
959,999,0.3574999999999591,0.5724999999999909,0.3574999999999591,0.42916666666663633,Sc2Cl2O2,0.0,-3.012,4.243,-41.21,6,3,5.534,13.837,15.333333333333334,5.333333333333333,2.6533333333333338
960,1000,0.20499999999992724,0.17999999999994998,0.18999999999994088,0.19166666666660603,Mn3S4,0.032,-0.494,0.0,-48.918,7,2,8.454,9.24,19.857142857142858,6.428571428571429,2.138571428571429
961,1001,0.7574999999999363,0.7574999999999363,0.8099999999999454,0.7749999999999394,Mn3Se4,0.054,-0.348,0.0,-45.52,7,2,8.707,12.075,30.142857142857142,12.142857142857142,2.1214285714285714
962,1002,0.8799999999999955,0.8725000000000591,0.8725000000000591,0.8750000000000379,Mn3Se4,0.059,-0.344,0.0,-45.487,7,2,3.273,23.558,30.142857142857142,12.142857142857142,2.1214285714285714
963,1003,0.7100000000000364,0.7124999999999773,0.7100000000000364,0.71083333333335,Te4Mn3,0.081,-0.09,0.0,-42.6,7,2,8.736,14.488,40.42857142857143,12.142857142857142,1.8642857142857143
964,1004,0.37999999999999545,0.4499999999999318,0.37999999999999545,0.40333333333330756,Tl2Cl2O2,0.001,-0.723,1.03,-23.151,6,3,5.883,15.953,35.333333333333336,8.666666666666666,2.8800000000000003
965,1005,1.3675000000000637,1.3550000000000182,1.3474999999999682,1.3566666666666833,V2Cl2O2,0.0,-1.814,0.0,-41.75,6,3,5.187,12.709,16.0,6.0,2.7433333333333336
966,1006,0.4199999999999591,0.4199999999999591,0.4199999999999591,0.4199999999999591,Y2Cl2O2,0.0,-3.178,4.395,-42.271,6,3,6.327,12.547,21.333333333333332,5.333333333333333,2.606666666666667
967,1007,1.775000000000091,2.0475000000000136,2.035000000000082,1.952500000000062,Mn4N3,0.189,-0.004,0.0,-63.954,7,2,7.945,7.081,17.285714285714285,6.142857142857143,2.1885714285714286
968,1008,0.4449999999999932,0.44999999999998863,0.4200000000000159,0.4383333333333326,Sc4N3,0.181,-1.486,0.0,-54.096,7,2,7.532,8.927,15.0,3.857142857142857,2.0800000000000005
969,1009,0.5225000000000364,0.4500000000000455,0.4075000000000273,0.4600000000000364,Si2P2Cl2,0.025,-0.575,2.33,-28.547,6,3,3.042,22.155,15.333333333333334,5.333333333333333,2.4166666666666665
970,1010,0.3549999999999045,0.9224999999999,0.8924999999999272,0.7233333333332439,Ti4N3,0.145,-1.256,0.0,-60.611,7,2,7.233,7.721,15.571428571428571,4.428571428571429,2.182857142857143
971,1011,2.3099999999999454,2.3099999999999454,2.3099999999999454,2.3099999999999454,W4N3,0.137,-0.103,0.0,-71.717,7,2,9.233,7.653,45.285714285714285,5.571428571428571,2.6514285714285717
972,1012,1.802500000000009,1.802500000000009,1.802500000000009,1.802500000000009,Pd2S2Cl2,0.023,-0.395,0.0,-21.734,6,3,5.26,17.917,26.333333333333332,7.666666666666667,2.646666666666667
973,1014,1.330000000000041,1.330000000000041,1.330000000000041,1.330000000000041,Pd2Se2Cl2,0.0,-0.447,0.0,-20.857,6,3,5.271,19.285,32.333333333333336,11.0,2.6366666666666667
974,1015,1.3174999999999955,1.3174999999999955,1.3174999999999955,1.3174999999999955,Pd2Te2Cl2,0.0,-0.483,0.0,-20.52,6,3,5.422,21.128,38.333333333333336,11.0,2.486666666666667
975,1016,0.2824999999999136,0.32749999999998636,0.2899999999999636,0.2999999999999545,Ni3Se4,0.053,-0.226,0.0,-37.252,7,2,7.744,11.455,31.428571428571427,13.428571428571429,2.275714285714286
976,1017,0.2699999999999818,0.2699999999999818,0.3625000000000682,0.30083333333334394,Te4Ni3,0.036,-0.183,0.0,-35.844,7,2,7.962,13.418,41.714285714285715,13.428571428571429,2.0185714285714282
977,1018,1.1949999999999363,1.1949999999999363,1.1949999999999363,1.1949999999999363,Pt2Te2Cl2,0.0,-0.493,0.0,-25.646,6,3,5.231,21.427,49.0,11.0,2.513333333333333
978,1019,4.522499999999923,4.522499999999923,4.522499999999923,4.522499999999923,Rh2S2Cl2,0.0,-0.627,1.063,-29.782,6,3,2.797,21.655,26.0,7.333333333333333,2.6733333333333333
979,1020,2.107499999999959,2.107499999999959,2.107499999999959,2.107499999999959,Rh2S2Cl2,0.007,-0.62,0.011,-29.741,6,3,5.438,16.43,26.0,7.333333333333333,2.6733333333333333
980,1021,2.3875000000000455,2.3875000000000455,2.3875000000000455,2.3875000000000455,Rh2S2Cl2,0.094,-0.533,0.083,-29.216,6,3,4.926,18.988,26.0,7.333333333333333,2.6733333333333333
981,1022,6.1724999999999,6.1724999999999,6.1724999999999,6.1724999999999,Rh2Se2Cl2,0.0,-0.613,1.092,-28.505,6,3,2.754,22.969,32.0,10.666666666666666,2.6633333333333336
982,1023,1.5599999999999454,1.5599999999999454,1.5599999999999454,1.5599999999999454,Rh2Se2Cl2,0.034,-0.579,0.0,-28.304,6,3,5.527,17.907,32.0,10.666666666666666,2.6633333333333336
983,1025,8.105000000000018,8.105000000000018,8.105000000000018,8.105000000000018,Rh2Te2Cl2,0.0,-0.594,1.038,-27.839,6,3,2.733,24.945,38.0,10.666666666666666,2.513333333333333
984,1026,1.4750000000000227,1.4750000000000227,1.4750000000000227,1.4750000000000227,Rh2Te2Cl2,0.022,-0.572,0.0,-27.709,6,3,5.64,19.883,38.0,10.666666666666666,2.513333333333333
985,1027,1.1475000000000364,1.1475000000000364,1.1475000000000364,1.1475000000000364,Ru2S2Cl2,0.14,-0.398,0.0,-33.039,6,3,5.684,15.684,25.666666666666668,7.0,2.646666666666667
986,1028,5.829999999999927,5.829999999999927,5.829999999999927,5.829999999999927,Sb2S2Cl2,0.019,-0.529,1.485,-23.715,6,3,3.227,28.99,28.0,9.333333333333334,2.5966666666666667
987,1029,2.2875000000000227,2.259999999999991,2.259999999999991,2.2691666666666683,Ge6P8,0.065,0.065,1.003,-69.103,14,2,3.655,52.517,22.285714285714285,8.857142857142858,2.1128571428571425
988,1030,1.5524999999997817,1.509999999999991,1.5299999999999727,1.5308333333332484,Mn6Se8,0.073,-0.329,0.0,-90.766,14,2,6.418,40.096,30.142857142857142,12.142857142857142,2.1214285714285714
989,1031,2.8600000000000136,2.8600000000000136,2.8600000000000136,2.8600000000000136,Sc2S2Cl2,0.0,-2.053,2.109,-33.361,6,3,5.535,18.834,18.0,5.333333333333333,2.3666666666666667
990,1032,0.47249999999996817,0.5299999999999727,0.4874999999999545,0.4966666666666318,Tl8S6,0.056,-0.246,1.11,-47.89,14,2,4.425,67.489,53.142857142857146,10.0,2.2714285714285714
991,1033,4.072499999999991,4.039999999999964,4.039999999999964,4.050833333333306,As8Si6,0.056,-0.032,1.472,-70.146,14,2,3.927,56.722,24.857142857142858,10.285714285714286,2.06
992,1034,1.8700000000000045,1.8700000000000045,1.8700000000000045,1.8700000000000045,Ti2S2Cl2,0.0,-1.53,0.0,-34.287,6,3,5.109,16.583,18.333333333333332,5.666666666666667,2.4266666666666667
993,1035,8.191499999999962,8.191499999999962,8.191499999999962,8.191499999999962,Y2S2Cl2,0.0,-2.248,3.023,-34.596,6,3,5.88,21.428,24.0,5.333333333333333,2.32
994,1036,0.40249999999991815,0.40249999999991815,0.40249999999991815,0.40249999999991815,Y2S2Cl2,0.091,-2.157,3.759,-34.052,6,3,2.872,28.028,24.0,5.333333333333333,2.32
995,1037,1.9774999999999636,1.9774999999999636,1.9774999999999636,1.9774999999999636,Y2S2Cl2,0.111,-2.137,3.328,-33.93,6,3,6.727,16.583,24.0,5.333333333333333,2.32
996,1038,2.3500000000000227,2.3500000000000227,2.3500000000000227,2.3500000000000227,Zr2S2Cl2,0.0,-1.749,0.0,-37.027,6,3,5.327,18.463,24.333333333333332,5.666666666666667,2.356666666666667
997,1039,61.9,61.9,61.9,61.9,Sc2Se2Cl2,0.0,-1.911,1.409,-31.323,6,3,5.503,20.274,24.0,8.666666666666666,2.356666666666667
998,1040,0.3525000000000773,0.3925000000000409,0.37000000000000455,0.3716666666667076,Sc2Se2Cl2,0.046,-1.865,2.079,-31.044,6,3,2.964,25.0,24.0,8.666666666666666,2.356666666666667
999,1041,0.40249999999991815,0.4499999999999318,0.40249999999991815,0.418333333333256,Te2Sc2Cl2,0.026,-1.621,0.399,-29.023,6,3,5.484,22.793,30.0,8.666666666666666,2.2066666666666666
1000,1042,1.6399999999999864,1.6399999999999864,1.6399999999999864,1.6399999999999864,Ti2Se2Cl2,0.029,-1.361,0.0,-32.082,6,3,5.101,17.819,24.333333333333332,9.0,2.4166666666666665
1001,1043,3.072499999999991,3.072499999999991,3.072499999999991,3.072499999999991,Pt4Se5S3,0.0,-0.407,1.308,-59.949,12,3,2.738,46.844,44.166666666666664,11.5,2.4675
1002,1044,0.5174999999999272,0.20000000000004547,1.0349999999998545,0.5841666666666091,Ir4Se3S5,0.051,-0.374,0.75,-72.429,12,3,2.746,42.457,40.833333333333336,9.5,2.4458333333333333
1003,1045,1.1024999999999636,1.1100000000001273,1.1024999999999636,1.1050000000000182,Ni4Se3S5,0.042,-0.256,0.287,-62.897,12,3,2.686,40.499,24.5,9.833333333333334,2.3491666666666666
1004,1046,61.9,61.9,61.9,61.9,Hf4Te3Se5,0.004,-1.151,0.003,-70.868,12,3,3.378,51.218,51.166666666666664,12.0,2.0208333333333335
1005,1047,1.427500000000009,1.427500000000009,1.427500000000009,1.427500000000009,Zr2Se2Cl2,0.0,-1.582,0.0,-34.832,6,3,5.324,19.512,30.333333333333332,9.0,2.3466666666666667
1006,1048,2.025000000000091,2.0125000000000455,2.0125000000000455,2.0166666666667274,Tl3F5,0.0,-1.927,2.88,-30.839,8,2,4.044,25.42,36.0,9.25,3.2525
1007,1049,7.527499999999691,1.7599999999997635,1.7599999999997635,3.6824999999997394,Te6O14,0.093,-0.926,2.29,-109.483,20,2,10.365,42.309,21.2,9.0,3.038
1008,1050,0.8199999999999363,0.8199999999999363,0.8199999999999363,0.8199999999999363,Nb3Br8,0.0,-0.978,0.293,-54.419,11,2,3.744,44.336,36.63636363636363,13.727272727272727,2.5890909090909093
1009,1051,3.2649999999998727,3.2649999999998727,3.2649999999998727,3.2649999999998727,Nb3Cl8,0.0,-1.345,0.206,-60.058,11,2,3.469,40.069,23.545454545454547,6.454545454545454,2.734545454545455
1010,1052,1.4800000000000182,1.482499999999959,1.4800000000000182,1.480833333333332,Te2V2Cl2,0.0,-0.75,0.0,-31.529,6,3,3.594,22.416,30.666666666666668,9.333333333333334,2.296666666666667
1011,1053,3.2274999999999636,3.2274999999999636,3.2274999999999636,3.2274999999999636,Nb3I8,0.0,-0.537,0.193,-48.711,11,2,4.061,51.136,49.72727272727273,13.727272727272727,2.370909090909091
1012,1054,3.7274999999999636,3.7274999999999636,3.7274999999999636,3.7274999999999636,Ta3Br8,0.057,-0.865,0.213,-51.643,11,2,3.802,43.925,45.36363636363637,13.727272727272727,2.561818181818182
1013,1055,1.4349999999999454,1.4349999999999454,1.4349999999999454,1.4349999999999454,Zr2Te2Cl2,0.021,-1.28,0.0,-32.464,6,3,5.265,21.464,36.333333333333336,9.0,2.1966666666666668
1014,1056,0.3774999999999409,0.2899999999999636,0.49249999999995,0.38666666666661814,I2Co2F2,0.04,-0.922,0.339,-28.118,6,3,5.336,21.253,29.666666666666668,11.0,2.84
1015,1057,0.5199999999999818,0.5199999999999818,0.5199999999999818,0.5199999999999818,Ta3I8,0.012,-0.42,0.155,-45.893,11,2,4.131,50.579,58.45454545454545,13.727272727272727,2.3436363636363637
1016,1058,3.5575000000000045,3.730000000000018,3.5575000000000045,3.615000000000009,Tl4Se5,0.06,-0.182,1.134,-29.045,9,2,3.809,59.899,54.888888888888886,14.666666666666666,2.3233333333333333
1017,1059,1.2475000000000591,1.2475000000000591,1.2475000000000591,1.2475000000000591,Co2O2F2,0.0,-1.454,0.101,-38.601,6,3,4.164,10.743,14.666666666666666,7.333333333333333,3.1
1018,1060,1.5499999999999545,1.5499999999999545,1.5499999999999545,1.5499999999999545,Co2S2F2,0.038,-1.056,0.016,-34.125,6,3,4.482,13.807,17.333333333333332,7.333333333333333,2.813333333333333
1019,1061,1.0674999999999955,1.0674999999999955,1.0674999999999955,1.0674999999999955,I2Co2S2,0.04,-0.288,0.0,-29.296,6,3,5.761,15.661,32.0,10.666666666666666,2.3733333333333335
1020,1062,61.9,61.9,61.9,61.9,Co5Se6,0.072,-0.218,0.0,-64.444,11,2,3.074,36.365,30.818181818181817,12.818181818181818,2.245454545454545
1021,1063,0.8675000000000637,0.8675000000000637,0.8675000000000637,0.8675000000000637,I2Co2Se2,0.0,-0.233,0.0,-27.776,6,3,5.819,17.19,38.0,14.0,2.3633333333333333
1022,1064,0.27750000000003183,0.31500000000005457,0.27499999999997726,0.2891666666666879,Te2I2Co2,0.0,-0.18,0.0,-26.906,6,3,5.912,19.242,44.0,14.0,2.2133333333333334
1023,1065,0.014999999999986358,0.04750000000001364,0.1349999999999909,0.0658333333333303,K2Co2P2,0.0,-0.468,0.0,-32.436,6,3,5.955,14.324,20.333333333333332,5.0,1.63
1024,1066,0.19249999999999545,0.3149999999999977,0.5649999999999977,0.357499999999997,Co2P2Li2,0.109,-0.568,0.0,-34.373,6,3,3.953,13.145,15.0,5.0,1.6833333333333336
1025,1067,0.7074999999999818,1.052500000000009,2.5,1.419999999999997,Sb2Co2Li2,0.13,-0.235,0.0,-30.458,6,3,3.411,16.935,27.0,8.333333333333334,1.6366666666666667
1026,1068,0.017500000000040927,0.3050000000000068,0.21000000000003638,0.17750000000002805,Co2Na2N2,0.076,0.011,0.0,-35.708,6,3,3.24,16.325,15.0,5.0,1.95
1027,1069,0.027500000000031832,0.16250000000002274,0.472500000000025,0.22083333333335986,Co2Na2P2,0.023,-0.446,0.0,-32.475,6,3,5.059,13.599,17.666666666666668,5.0,1.6666666666666667
1028,1070,0.10250000000002046,0.14750000000003638,0.7624999999999886,0.3375000000000152,Sb2Co2Na2,0.172,-0.106,0.0,-28.523,6,3,4.437,18.262,29.666666666666668,8.333333333333334,1.6199999999999999
1029,1071,0.08249999999998181,0.04750000000001364,0.23250000000001592,0.12083333333333712,Sr2Co2Si2,0.038,-0.378,0.0,-32.872,6,3,5.282,15.417,26.333333333333332,5.0,1.5766666666666669
1030,1072,1.4549999999999272,1.4549999999999272,1.4549999999999272,1.4549999999999272,Cr2O2F2,0.0,-2.316,0.884,-46.133,6,3,4.282,11.767,13.666666666666666,6.333333333333333,3.026666666666667
1031,1073,1.5149999999999864,1.5149999999999864,1.5149999999999864,1.5149999999999864,Cr2S2F2,0.066,-1.564,0.494,-39.528,6,3,4.524,15.408,16.333333333333332,6.333333333333333,2.74
1032,1074,1.509999999999991,1.509999999999991,1.509999999999991,1.509999999999991,Cr2Se2F2,0.102,-1.43,0.0,-37.538,6,3,4.588,16.721,22.333333333333332,9.666666666666666,2.73
1033,1075,61.9,61.9,61.9,61.9,I2Cr2S2,0.0,-0.619,0.331,-33.645,6,3,6.014,17.507,31.0,9.666666666666666,2.3000000000000003
1034,1076,0.9149999999999636,0.9149999999999636,0.9149999999999636,0.9149999999999636,I2Cr2Se2,0.0,-0.522,0.0,-31.872,6,3,6.105,19.0,37.0,13.0,2.29
1035,1077,61.9,61.9,61.9,61.9,Te2I2Cr2,0.0,-0.349,0.0,-30.276,6,3,6.273,21.3,43.0,13.0,2.14
1036,1078,0.31999999999993634,0.35999999999989996,0.34999999999990905,0.34333333333324845,Cr2Se2S2,0.086,-0.493,0.0,-36.899,6,3,3.393,17.245,24.666666666666668,9.333333333333334,2.263333333333333
1037,1079,0.0,0.017500000000040927,0.14750000000003638,0.05500000000002577,Cs2Mg2P2,0.0,-0.623,0.41,-19.368,6,3,6.209,20.087,27.333333333333332,2.6666666666666665,1.43
1038,1080,0.09749999999996817,0.1349999999999909,0.13249999999999318,0.12166666666665076,Cs2Se2Na2,0.046,-1.067,1.372,-17.648,6,3,5.984,23.746,33.333333333333336,6.0,1.4233333333333331
1039,1081,0.20249999999998636,0.21749999999997272,0.21999999999997044,0.21333333333330984,Cs2Te2Na2,0.051,-0.979,1.409,-16.566,6,3,6.144,27.178,39.333333333333336,6.0,1.2733333333333334
1040,1082,3.474000000000018,2.4450000000000216,1.7117500000000234,2.543583333333354,Cs2Zn2P2,0.0,-0.374,0.042,-17.008,6,3,6.231,17.936,33.333333333333336,6.0,1.5433333333333332
1041,1083,0.4674999999999727,0.9325000000000045,0.9224999999999,0.7741666666666257,I2Cu2F2,0.024,-0.843,0.0,-18.543,6,3,6.137,15.593,30.333333333333332,11.666666666666666,2.846666666666667
1042,1084,0.10000000000002274,0.0625,0.7124999999999773,0.2916666666666667,K2Cu2S2,0.076,-0.712,1.623,-22.219,6,3,4.242,22.985,21.333333333333332,6.0,1.7666666666666666
1043,1085,0.10250000000007731,0.1449999999999818,2.987500000000068,1.0783333333333758,K2Cu2Se2,0.027,-0.677,1.574,-20.819,6,3,4.269,24.236,27.333333333333332,9.333333333333334,1.7566666666666666
1044,1086,2.2674999999999272,2.277499999999918,0.4199999999999591,1.6549999999999347,Cu2Se2Li2,0.073,-0.625,1.127,-21.849,6,3,4.019,14.493,22.0,9.333333333333334,1.8099999999999998
1045,1087,1.2250000000000227,1.2250000000000227,1.2250000000000227,1.2250000000000227,Tl2Cu2S2,0.034,-0.234,0.614,-21.909,6,3,3.68,24.475,42.0,10.0,2.1733333333333333
1046,1088,0.4199999999999591,0.4049999999999727,0.33999999999991815,0.3883333333332833,Tl2Cu2S2,0.058,-0.21,0.0,-21.764,6,3,2.088,26.697,42.0,10.0,2.1733333333333333
1047,1089,0.21499999999991815,0.21499999999991815,0.21499999999991815,0.21499999999991815,Ga2O2F2,0.0,-2.229,3.152,-32.605,6,3,4.338,11.738,16.0,8.666666666666666,3.0766666666666667
1048,1090,8.254999999999995,8.254999999999995,8.254999999999995,8.254999999999995,Ga2S2F2,0.079,-1.493,3.546,-26.094,6,3,4.276,18.776,18.666666666666668,8.666666666666666,2.7900000000000005
1049,1091,10.56499999999994,10.56499999999994,10.56499999999994,10.56499999999994,Ga2Se2F2,0.065,-1.468,2.871,-24.755,6,3,4.184,20.018,24.666666666666668,12.0,2.78
1050,1092,9.680000000000064,9.680000000000064,9.680000000000064,9.680000000000064,Te2Ga2F2,0.051,-1.336,2.095,-23.408,6,3,4.129,22.191,30.666666666666668,12.0,2.6300000000000003
1051,1093,61.9,61.9,61.9,61.9,Sc2F2H2,0.044,-2.137,0.0,-31.961,6,3,4.905,9.26,10.333333333333334,3.6666666666666665,2.513333333333333
1052,1094,61.9,61.9,61.9,61.9,Hf2N2F2,0.0,-2.579,2.308,-50.367,6,3,4.632,13.83,29.333333333333332,5.333333333333333,2.7733333333333334
1053,1095,61.9,61.9,61.9,61.9,Hf2N2F2,0.048,-2.531,2.683,-50.077,6,3,5.163,10.834,29.333333333333332,5.333333333333333,2.7733333333333334
1054,1096,61.9,61.9,61.9,61.9,Hf2S2F2,0.055,-2.403,0.0,-40.76,6,3,4.067,17.345,32.333333333333336,5.666666666666667,2.6199999999999997
1055,1097,0.32000000000005,0.35000000000002274,0.21500000000003183,0.29500000000003485,Sr2I2F2,0.0,-2.926,4.219,-27.032,6,3,6.152,17.91,33.333333333333336,8.666666666666666,2.53