,ind,max_valorX,max_valorY,max_valorZ,media,formula,Ehull,HF,Gap,Energy,natoms,nspecies,thickness,uc_area,average_atomic_number,average_valence_number,average_electronegativity
1666,1762,4.384999999999991,4.384999999999991,4.384999999999991,4.384999999999991,Tl2Te2,0.139,-0.087,0.294,-11.755,4,2,5.658,17.691,66.5,14.5,2.0700000000000003
1667,1763,2.2724999999999795,2.2824999999999704,2.2724999999999795,2.27583333333331,Tl2Te2,0.141,-0.085,0.0,-11.743,4,2,3.778,23.669,66.5,14.5,2.0700000000000003
1668,1764,0.2900000000000773,0.2900000000000773,0.6850000000000591,0.4216666666667379,Au2Te4I2,0.064,-0.058,0.711,-22.502,8,3,3.571,50.67,59.0,15.0,2.35
1669,1765,0.9474999999999909,0.9474999999999909,1.0049999999999955,0.9666666666666591,Te2V2,0.178,-0.128,0.0,-23.97,4,2,4.04,13.618,37.5,10.5,1.865
1670,1766,0.7124999999999773,0.5850000000000364,0.6050000000000182,0.6341666666666773,Bi2Cu2S4,0.104,-0.201,0.136,-34.624,8,3,5.229,24.473,36.0,9.5,2.27
1671,1767,0.6374999999999318,0.6374999999999318,0.6374999999999318,0.6374999999999318,Bi2S4H2,0.006,-0.292,0.962,-34.642,8,3,7.062,23.365,29.0,7.0,2.3449999999999998
1672,1769,1.0949999999999136,1.0949999999999136,1.0949999999999136,1.0949999999999136,Bi2Se4H2,0.006,-0.237,0.452,-31.824,8,3,6.603,25.048,38.0,12.0,2.33
1673,1770,0.15250000000014552,0.11750000000006366,0.1125000000001819,0.12750000000013037,Cu2Br2O4,0.054,-0.214,0.434,-32.732,8,3,3.157,30.326,20.0,10.0,2.9349999999999996
1674,1771,1.6000000000000227,1.6000000000000227,1.6000000000000227,1.6000000000000227,Cu2Br2S4,0.0,-0.223,0.934,-28.62,8,3,3.168,36.454,24.0,10.0,2.505
1675,1772,0.46249999999997726,0.46249999999997726,0.7599999999999909,0.5616666666666484,Te4Cu2Br2,0.012,-0.209,0.873,-25.01,8,3,3.081,43.795,42.0,15.0,2.2649999999999997
1676,1773,0.6774999999998954,0.6774999999998954,0.599999999999909,0.6516666666665666,Br2Li2O4,0.092,-0.691,2.625,-32.972,8,3,4.058,23.373,13.5,7.5,2.705
1677,1774,2.2024999999999864,2.2024999999999864,2.2024999999999864,2.2024999999999864,Nb2Br2Cl4,0.047,-1.168,0.194,-40.304,8,3,3.437,32.616,27.5,9.0,2.72
1678,1775,61.9,61.9,61.9,61.9,Nb2Br2O4,0.0,-2.229,2.007,-62.147,8,3,7.008,14.591,23.0,8.5,2.8600000000000003
1679,1776,1.6774999999998954,1.6774999999998954,1.6774999999998954,1.6774999999998954,Pd2Br2Cl4,0.025,-0.362,0.251,-20.842,8,3,2.891,35.457,28.75,10.25,2.87
1680,1778,0.9875000000000682,0.9875000000000682,0.9875000000000682,0.9875000000000682,Ta2Br2O4,0.0,-2.332,1.644,-61.955,8,3,6.997,14.432,31.0,8.5,2.835
1681,1779,1.197499999999991,1.197499999999991,1.197499999999991,1.197499999999991,Zr2Br2Cl4,0.088,-1.586,0.0,-37.804,8,3,3.541,35.105,27.25,8.75,2.6525
1682,1780,0.2999999999999545,0.2999999999999545,0.2999999999999545,0.2999999999999545,Cs3Br3,0.043,-1.782,4.044,-17.944,6,2,7.378,26.747,45.0,9.0,1.875
1683,1781,3.9449999999999363,3.9750000000000227,3.9524999999999864,3.957499999999982,Te4Co2Cl2,0.064,-0.291,0.0,-35.177,8,3,7.517,19.347,37.0,12.0,2.31
1684,1782,3.787499999999909,3.8099999999999454,3.8349999999999227,3.810833333333259,I4Cu2Cl2,0.034,-0.207,0.31,-18.494,8,3,3.723,45.958,38.0,13.0,2.595
1685,1783,0.6525000000001455,0.6525000000001455,0.6525000000001455,0.6525000000001455,Cu2Cl2O4,0.034,-0.296,0.452,-33.79,8,3,2.81,29.849,15.5,7.5,2.9850000000000003
1686,1784,0.29750000000001364,0.29750000000001364,0.29750000000001364,0.29750000000001364,K3Br3,0.047,-1.745,4.224,-18.881,6,2,6.787,21.753,27.0,9.0,1.89
1687,1785,0.4249999999999545,0.4874999999999545,0.3774999999999977,0.4299999999999689,Br3Li3,0.025,-1.541,4.819,-19.668,6,2,5.742,14.47,19.0,9.0,1.9699999999999998
1688,1786,1.947499999999991,1.947499999999991,1.947499999999991,1.947499999999991,Cu2S4Cl2,0.0,-0.303,0.996,-29.656,8,3,2.829,35.84,19.5,7.5,2.555
1689,1787,0.30000000000001137,0.30000000000001137,0.30000000000001137,0.30000000000001137,Br3Na3,0.036,-1.569,4.123,-18.092,6,2,6.186,17.55,23.0,9.0,1.9449999999999996
1690,1788,0.8350000000000364,0.8350000000000364,0.8350000000000364,0.8350000000000364,Cu2Se4Cl2,0.001,-0.304,0.829,-27.284,8,3,2.841,38.581,28.5,12.5,2.54
1691,1789,1.2799999999999727,1.2924999999999045,1.2799999999999727,1.2841666666666167,Cu3Cl3,0.001,-0.451,1.449,-19.088,6,2,4.443,19.537,23.0,9.0,2.53
1692,1790,0.7324999999999591,0.7324999999999591,0.7324999999999591,0.7324999999999591,Te4Cu2Cl2,0.009,-0.279,0.853,-25.974,8,3,2.772,42.854,37.5,12.5,2.315
1693,1791,0.8899999999999864,0.8899999999999864,0.8500000000000227,0.8766666666666652,Cl2Li2O4,0.153,-0.765,3.347,-33.964,8,3,3.766,23.097,9.0,5.0,2.755
1694,1792,1.072499999999991,1.072499999999991,1.072499999999991,1.072499999999991,Cu3Cl3,0.058,-0.394,1.296,-18.745,6,2,2.363,29.89,23.0,9.0,2.53
1695,1793,1.830000000000041,1.830000000000041,1.830000000000041,1.830000000000041,Mo2Cl2O4,0.094,-1.624,0.71,-59.462,8,3,3.864,23.925,18.75,6.25,3.05
1696,1794,0.33749999999997726,0.33749999999997726,0.33749999999997726,0.33749999999997726,K3Cl3,0.044,-1.939,4.908,-20.648,6,2,6.421,19.802,18.0,4.0,1.9900000000000002
1697,1795,1.8550000000000182,0.8975000000000364,0.8975000000000364,1.216666666666697,Cl3Li3,0.026,-1.81,5.819,-21.883,6,2,5.355,12.642,10.0,4.0,2.07
1698,1796,0.347500000000025,0.4350000000000023,0.347500000000025,0.3766666666666841,Na3Cl3,0.041,-1.797,5.021,-20.057,6,2,5.834,15.624,14.0,4.0,2.045
1699,1797,0.3974999999999227,0.3149999999999409,2.7124999999999773,1.1416666666666135,Tl3Cl3,0.027,-0.997,2.443,-18.833,6,2,6.432,20.775,49.0,10.0,2.6
1700,1798,1.2000000000000455,1.2000000000000455,1.2000000000000455,1.2000000000000455,Nb2Cl2O4,0.012,-2.322,2.754,-63.292,8,3,6.707,14.299,18.5,6.0,2.91
1701,1799,2.957499999999982,2.884999999999991,2.990000000000009,2.9441666666666606,Ni2S4Cl2,0.091,-0.262,0.0,-36.471,8,3,7.464,16.553,19.25,7.25,2.5575
1702,1800,3.6024999999999636,3.75,3.7649999999999864,3.7058333333333167,Te4Ni2Cl2,0.061,-0.308,0.0,-33.346,8,3,7.606,20.598,37.25,12.25,2.3175
1703,1801,3.0375000000000227,3.19500000000005,3.3575000000000728,3.196666666666715,Pd2Se4Cl2,0.036,-0.305,0.0,-27.582,8,3,7.799,20.103,32.75,12.25,2.615
1704,1802,0.3574999999999591,0.4249999999999545,0.3224999999999909,0.3683333333333015,In3F3,0.015,-1.748,1.631,-23.535,6,2,4.297,18.441,29.0,10.0,2.8800000000000003
1705,1803,0.1674999999999045,0.1674999999999045,0.1674999999999045,0.1674999999999045,Na3F3,0.051,-2.767,5.677,-25.283,6,2,4.776,10.451,10.0,4.0,2.455
1706,1804,3.8999999999999773,3.965000000000032,3.8999999999999773,3.921666666666662,Pd2Te4Cl2,0.055,-0.387,0.0,-27.122,8,3,7.653,22.338,41.75,12.25,2.39
1707,1805,4.327499999999986,4.327499999999986,4.327499999999986,4.327499999999986,Hg3S3,0.092,-0.105,1.383,-15.521,6,2,1.936,42.146,48.0,9.0,2.29
1708,1806,0.2675000000000409,0.47249999999996817,0.3025000000000091,0.3475000000000061,Hg3Se3,0.077,-0.169,0.672,-14.118,6,2,4.837,26.99,57.0,14.0,2.275
1709,1807,0.4074999999999136,0.48499999999989996,0.3125,0.4016666666666045,Hg3Te3,0.073,-0.13,0.672,-13.049,6,2,5.124,30.446,66.0,14.0,2.0500000000000003
1710,1808,2.2624999999999886,2.2624999999999886,2.2624999999999886,2.2624999999999886,In3I3,0.089,-0.399,1.434,-15.117,6,2,4.872,34.787,51.0,15.0,2.22
1711,1809,1.2925000000000182,1.2925000000000182,1.2925000000000182,1.2925000000000182,Sc2Br4Cl2,0.0,-1.908,3.067,-34.493,8,3,3.135,38.972,27.0,11.0,2.6100000000000003
1712,1810,1.7199999999999704,1.7199999999999704,1.7199999999999704,1.7199999999999704,Tl3I3,0.024,-0.653,1.737,-15.847,6,2,7.04,24.957,67.0,15.0,2.35
1713,1811,2.0674999999999955,2.0500000000000114,2.0500000000000114,2.0558333333333394,Pb3Se3,0.08,-0.503,0.207,-24.742,6,2,6.086,19.218,58.0,15.0,2.44
1714,1812,1.3125,1.3125,1.3125,1.3125,Ta2Cl2O4,0.0,-2.431,2.367,-63.151,8,3,6.683,14.212,26.5,6.0,2.885
1715,1813,3.832499999999982,3.8350000000000364,3.832499999999982,3.8333333333333335,Co2Se4F2,0.081,-0.712,0.0,-39.261,8,3,6.663,16.147,26.0,12.0,2.7399999999999998
1716,1816,1.240000000000009,1.2275000000000205,1.2275000000000205,1.2316666666666833,IAsSe,0.193,0.014,0.446,-9.582,3,3,3.665,12.675,40.0,16.0,2.4633333333333334
1717,1817,3.542500000000018,3.542500000000018,3.542500000000018,3.542500000000018,Te4Co2F2,0.088,-0.749,0.0,-38.444,8,3,6.71,18.491,35.0,12.0,2.515
1718,1818,0.12000000000000455,0.22000000000002728,0.18250000000000455,0.1741666666666788,Co2O4H2,0.051,-1.035,0.391,-51.881,8,3,5.125,10.86,11.0,5.5,2.74
1719,1819,1.4099999999999682,1.8125,1.6924999999999955,1.6383333333333212,Co2S4H2,0.017,-0.329,0.364,-42.054,8,3,6.043,14.923,15.0,5.5,2.31
1720,1820,3.027499999999918,6.339999999999918,3.027499999999918,4.131666666666585,Cu2Se4F2,0.0,-0.65,0.88,-29.66,8,3,2.206,37.555,26.5,12.5,2.745
1721,1821,0.3450000000000273,0.3450000000000273,0.3450000000000273,0.3450000000000273,I2Cu2Se4,0.0,-0.143,0.791,-25.386,8,3,3.559,40.397,37.5,15.0,2.415
1722,1823,0.3125,0.3125,0.7250000000000227,0.45000000000000756,Te4I2Cu2,0.009,-0.124,0.836,-24.121,8,3,3.427,45.531,46.5,15.0,2.19
1723,1824,1.1000000000000227,1.009999999999991,1.009999999999991,1.0400000000000016,Tl4As4,0.055,0.055,0.04,-28.201,8,2,5.01,31.537,57.0,14.0,2.1100000000000003
1724,1825,0.18249999999989086,0.1775000000000091,0.23749999999995453,0.19916666666661817,Au4Br4,0.085,-0.075,1.482,-19.456,8,2,3.351,35.994,57.0,14.0,2.75
1725,1826,0.3574999999998454,0.7474999999999454,0.48499999999989996,0.5299999999998969,Au4S4,0.036,-0.056,0.669,-29.276,8,2,1.929,46.283,47.5,8.5,2.56
1726,1827,0.99249999999995,0.99249999999995,0.99249999999995,0.99249999999995,Sb2Cu2S4,0.063,-0.207,0.357,-34.136,8,3,5.23,23.421,28.0,9.5,2.2775
1727,1828,0.3350000000000364,0.7100000000000364,0.22749999999996362,0.4241666666666788,Au4Se4,0.0,-0.123,0.58,-27.435,8,2,4.885,28.063,56.5,13.5,2.545
1728,1829,2.4524999999999864,2.4524999999999864,2.4524999999999864,2.4524999999999864,Se4Be4,0.092,-0.709,2.905,-34.408,8,2,2.711,26.508,19.0,9.0,2.06
1729,1830,0.38999999999998636,0.38999999999998636,0.6399999999999864,0.4733333333333197,Te4Be4,0.098,-0.271,1.816,-29.797,8,2,3.071,30.591,28.0,9.0,1.835
1730,1831,0.57000000000005,0.57000000000005,0.57000000000005,0.57000000000005,Bi4Cu4,0.046,0.046,0.0,-33.029,8,2,5.035,22.179,56.0,13.0,1.96
1731,1833,0.5475000000000136,1.322499999999991,0.6425000000000409,0.8375000000000151,Sb2Cu2Se4,0.072,-0.149,0.183,-31.285,8,3,5.434,26.047,37.0,14.5,2.2624999999999997
1732,1834,9.284999999999968,1.3799999999999955,4.134999999999991,4.9333333333333185,In4Br4,0.05,-0.645,2.922,-22.551,8,2,2.739,56.219,42.0,15.0,2.37
1733,1835,1.9624999999999773,1.6649999999999636,4.585000000000036,2.7374999999999923,In4Br4,0.064,-0.631,1.824,-22.44,8,2,2.565,56.865,42.0,15.0,2.37
1734,1836,0.5674999999999955,0.7000000000000455,0.27750000000003183,0.5150000000000242,Sb2Te4Cu2,0.089,-0.011,0.064,-29.072,8,3,5.763,29.891,46.0,14.5,2.0375
1735,1837,0.37000000000000455,0.37000000000000455,0.4474999999999909,0.3958333333333333,Br4Li4,0.023,-1.542,4.929,-26.236,8,2,3.003,28.37,19.0,9.0,1.97
1736,1838,3.0625,3.0625,3.0625,3.0625,In4Cl4,0.054,-0.788,0.21,-24.498,8,2,3.607,51.652,33.0,10.0,2.47
1737,1839,0.29750000000001364,0.27750000000003183,0.27750000000003183,0.28416666666669244,Cl4Li4,0.011,-1.825,6.097,-29.299,8,2,2.832,28.614,10.0,4.0,2.0700000000000003
1738,1840,0.7825000000000273,0.7825000000000273,0.7825000000000273,0.7825000000000273,Cl4Li4,0.041,-1.795,6.192,-29.059,8,2,2.037,37.633,10.0,4.0,2.0700000000000003
1739,1841,9.882499999999936,2.6849999999999454,6.802500000000009,6.456666666666631,Na4Cl4,0.06,-1.778,5.098,-26.595,8,2,2.994,30.781,14.0,4.0,2.045
1740,1842,0.4350000000000591,0.7325000000000728,1.5725000000001046,0.9133333333334122,Tl4Cl4,0.091,-0.934,2.74,-24.601,8,2,2.172,60.766,49.0,10.0,2.6
1741,1843,2.340000000000032,1.7699999999999818,1.8099999999999454,1.9733333333333196,Cr4S4,0.124,-0.493,0.0,-57.892,8,2,3.209,20.867,20.0,6.0,2.12
1742,1844,0.3524999999999636,0.3524999999999636,0.3524999999999636,0.3524999999999636,I4Cu4,0.031,-0.135,1.566,-21.698,8,2,3.434,32.292,41.0,14.0,2.2800000000000002
1743,1845,2.0874999999999773,2.1924999999999955,2.167500000000018,2.149166666666664,Ni2S4F2,0.096,-0.671,0.0,-39.348,8,3,6.587,15.951,17.25,7.25,2.7625
1744,1846,2.369999999999891,2.384999999999991,2.369999999999891,2.374999999999924,Ni2Se4F2,0.063,-0.687,0.0,-37.098,8,3,6.719,17.554,26.25,12.25,2.7475
1745,1847,0.5475000000000136,0.7350000000000136,0.5599999999999454,0.6141666666666575,In4F4,0.0,-1.763,2.465,-31.501,8,2,2.912,31.641,29.0,10.0,2.88
1746,1848,0.8724999999999454,0.5649999999999409,0.5649999999999409,0.6674999999999424,In4F4,0.037,-1.726,0.068,-31.205,8,2,3.025,26.637,29.0,10.0,2.88
1747,1849,61.9,61.9,61.9,61.9,Li4F4,0.05,-2.976,6.796,-37.715,8,2,2.156,15.345,6.0,4.0,2.48
1748,1850,0.3300000000000409,0.21000000000003638,0.7050000000000409,0.4150000000000394,Tl4F4,0.0,-1.824,3.571,-30.928,8,2,3.137,29.531,45.0,10.0,3.01
1749,1851,3.707499999999982,0.9424999999999955,0.9424999999999955,1.8641666666666576,Tl4F4,0.017,-1.807,3.362,-30.79,8,2,3.262,30.591,45.0,10.0,3.01
1750,1852,2.7574999999999363,3.212500000000091,3.2899999999999636,3.086666666666664,Pd2Se4F2,0.072,-0.692,0.0,-30.284,8,3,6.971,19.644,30.75,12.25,2.82
1751,1853,2.2024999999999864,1.6375000000000455,2.0674999999999955,1.9691666666666758,Fe4Se4,0.08,-0.19,0.0,-51.62,8,2,3.449,22.543,30.0,12.0,2.19
1752,1854,0.3825000000001637,0.3849999999999909,0.39000000000010004,0.38583333333341824,Hg4Se4,0.04,-0.205,0.366,-19.113,8,2,5.317,32.925,57.0,14.0,2.275
1753,1855,0.2799999999999727,0.2799999999999727,0.28500000000008185,0.2816666666666758,Hg4Te4,0.044,-0.159,0.373,-17.632,8,2,5.491,37.223,66.0,14.0,2.05
1754,1856,1.4725000000000819,1.0,0.875,1.1158333333333605,In4I4,0.064,-0.423,1.403,-20.353,8,2,6.993,39.193,51.0,15.0,2.22
1755,1857,0.38249999999993634,0.36999999999989086,0.37249999999994543,0.3749999999999242,Se4Mg4,0.082,-1.181,3.089,-29.849,8,2,3.257,32.978,23.0,9.0,1.93
1756,1858,0.5525000000000091,0.5475000000000136,0.5599999999999454,0.5533333333333227,Mn4S4,0.061,-0.428,0.006,-58.601,8,2,3.28,22.131,20.5,6.5,2.065
1757,1859,61.9,61.9,61.9,61.9,Mn4Se4,0.073,-0.278,0.029,-55.026,8,2,3.579,22.817,29.5,11.5,2.05
1758,1860,0.7275000000000205,0.7275000000000205,0.7275000000000205,0.7275000000000205,In2S4H2,0.0,-0.437,1.881,-31.98,8,3,6.179,20.403,20.5,6.5,2.285
1759,1861,1.3724999999999454,1.5950000000000273,1.3724999999999454,1.4466666666666395,Ni4S4,0.096,-0.282,0.635,-47.558,8,2,2.552,28.429,22.0,8.0,2.245
1760,1862,0.39999999999997726,0.4075000000000273,0.39999999999997726,0.4024999999999939,In2Se4H2,0.0,-0.336,1.242,-28.791,8,3,6.411,22.632,29.5,11.5,2.27
1761,1863,0.21749999999997272,0.32749999999987267,0.4149999999999636,0.31999999999993634,Ni4Se4,0.087,-0.198,0.0,-44.508,8,2,3.315,24.502,31.0,13.0,2.23
1762,1864,1.4774999999999636,1.3125,1.3774999999999409,1.389166666666635,Pb4O4,0.007,-1.156,2.614,-44.78,8,2,2.653,29.997,45.0,10.0,2.885
1763,1865,0.9175000000000182,0.6425000000000409,1.0100000000001046,0.8566666666667212,Pb4O4,0.064,-1.099,2.269,-44.321,8,2,4.175,26.437,45.0,10.0,2.885
1764,1866,1.5324999999999136,1.4399999999999409,1.4724999999999682,1.4816666666666076,Sn4O4,0.002,-1.301,2.836,-47.13,8,2,2.543,29.822,29.0,10.0,2.7
1765,1867,0.46249999999997726,0.49249999999995,0.26499999999998636,0.40666666666663787,Sn4O4,0.045,-1.258,1.938,-46.79,8,2,4.189,23.735,29.0,10.0,2.7
1766,1868,1.6399999999999864,1.5450000000000728,1.6625000000000227,1.6158333333333605,Sn4S4,0.037,-0.421,1.737,-35.905,8,2,2.836,35.765,33.0,10.0,2.27
1767,1869,2.472499999999968,2.472499999999968,2.472499999999968,2.472499999999968,Tl4Te4,0.083,-0.143,0.844,-23.957,8,2,5.189,44.241,66.5,14.5,2.0700000000000003
1768,1870,0.7525000000000546,1.3425000000000864,1.9750000000000227,1.3566666666667213,Mn2Se4H2,0.098,-0.254,0.0,-42.044,8,3,6.366,19.105,23.5,10.0,2.2125
1769,1872,0.1774999999998954,0.2999999999999545,0.22749999999996362,0.23499999999993784,Ni2O4H2,0.0,-0.834,0.0,-48.311,8,3,5.005,11.655,11.25,5.75,2.7474999999999996
1770,1873,1.2200000000000273,1.7074999999999818,1.8700000000000045,1.5991666666666713,Ni2S4H2,0.031,-0.262,0.0,-39.552,8,3,5.76,16.188,15.25,5.75,2.3175
1771,1874,1.3449999999999136,1.3700000000000045,1.3924999999999272,1.3691666666666151,Ni2Se4H2,0.009,-0.184,0.0,-36.548,8,3,6.123,17.933,24.25,10.75,2.3025
1772,1875,0.6475000000000364,0.99249999999995,0.5,0.7133333333333288,Pb5O5,0.056,-1.107,1.886,-55.48,10,2,3.739,37.192,45.0,10.0,2.8850000000000002
1773,1876,0.74249999999995,1.4025000000000318,1.8600000000000136,1.3349999999999984,Pd2S4H2,0.042,-0.235,0.0,-32.485,8,3,5.819,18.34,19.75,5.75,2.39
1774,1877,0.7150000000000318,1.4875000000000682,1.88250000000005,1.3616666666667168,Pd2Se4H2,0.005,-0.213,0.0,-29.928,8,3,6.181,20.03,28.75,10.75,2.375
1775,1878,0.8274999999999864,0.8274999999999864,0.8274999999999864,0.8274999999999864,Sb2Se4H2,0.0,-0.17,0.7,-30.751,8,3,6.617,24.856,30.0,12.0,2.3375
1776,1881,0.5824999999999818,0.7425000000000637,0.5900000000000318,0.6383333333333591,Nb2I2O4,0.0,-2.093,1.188,-60.851,8,3,7.37,15.063,27.5,8.5,2.785
1777,1882,61.9,61.9,61.9,61.9,Ta2I2O4,0.0,-2.186,0.614,-60.574,8,3,7.388,14.804,35.5,8.5,2.76
1778,1884,1.7225000000000819,1.7225000000000819,1.7225000000000819,1.7225000000000819,Au6I6,0.029,-0.069,1.079,-28.483,12,2,5.074,59.585,66.0,14.0,2.6
1779,1885,2.677500000000009,2.675000000000182,2.675000000000182,2.6758333333334576,Au6I6,0.072,-0.026,1.507,-27.96,12,2,5.292,59.207,66.0,14.0,2.6
1780,1886,0.6675000000000182,0.6675000000000182,0.6675000000000182,0.6675000000000182,Cu6Br6,0.018,-0.286,1.975,-34.998,12,2,4.004,52.913,32.0,14.0,2.4299999999999997
1781,1887,0.9875000000000682,0.9875000000000682,0.9875000000000682,0.9875000000000682,Br6Li6,0.034,-1.532,4.721,-39.226,12,2,6.413,31.384,19.0,9.0,1.9699999999999998
1782,1888,0.2599999999999909,0.2725000000000364,0.2799999999999727,0.2708333333333333,Br6Li6,0.052,-1.514,4.842,-39.012,12,2,3.187,47.583,19.0,9.0,1.9699999999999998
1783,1889,4.7549999999999955,4.787500000000023,4.7549999999999955,4.765833333333338,Tl6Br6,0.021,-0.858,2.092,-34.793,12,2,6.65,44.907,58.0,15.0,2.5
1784,1890,2.740000000000009,2.740000000000009,2.740000000000009,2.740000000000009,Cu6Cl6,0.016,-0.436,0.739,-37.996,12,2,7.305,25.622,23.0,9.0,2.53
1785,1891,0.2825000000000273,0.3625000000000682,0.3224999999999909,0.3225000000000288,Cl6Li6,0.061,-1.775,5.662,-43.346,12,2,2.997,41.849,10.0,4.0,2.07
1786,1892,6.464999999999918,6.464999999999918,6.464999999999918,6.464999999999918,Cl6Li6,0.067,-1.769,5.924,-43.273,12,2,2.837,43.562,10.0,4.0,2.07
1787,1893,7.529999999999973,7.529999999999973,7.529999999999973,7.529999999999973,Rb6Cl6,0.044,-1.925,4.691,-39.263,12,2,6.694,43.734,27.0,4.0,1.9900000000000002
1788,1894,0.6650000000000773,0.6375000000000455,0.6600000000000819,0.6541666666667348,Tl6Cl6,0.061,-0.964,3.139,-37.26,12,2,3.047,70.802,49.0,10.0,2.6
1789,1895,0.0025000000000545697,0.009999999999990905,0.08249999999998181,0.03166666666667576,Cs6F6,0.028,-2.692,4.45,-46.823,12,2,6.243,35.544,32.0,4.0,2.385
1790,1896,1.205000000000041,1.205000000000041,1.205000000000041,1.205000000000041,Nb2Br4O2,0.0,-1.66,1.038,-50.516,8,3,4.2,27.885,29.75,11.25,2.7399999999999998
1791,1897,1.4649999999999181,1.4649999999999181,1.4649999999999181,1.4649999999999181,Nb2Cl4O2,0.0,-1.898,1.041,-53.226,8,3,3.886,26.564,20.75,6.25,2.84
1792,1898,0.5125000000000455,0.42250000000001364,0.34750000000008185,0.427500000000047,Nb2I4O2,0.0,-1.358,1.024,-47.682,8,3,4.596,30.086,38.75,11.25,2.59
1793,1899,0.01999999999998181,0.02250000000003638,0.1449999999999818,0.0625,K6F6,0.036,-2.767,5.179,-50.042,12,2,5.46,27.865,14.0,4.0,2.4
1794,1900,0.19249999999988177,0.19249999999988177,0.19249999999988177,0.19249999999988177,Li6F6,0.033,-2.994,6.804,-56.786,12,2,4.26,15.606,6.0,4.0,2.48
1795,1901,1.107499999999959,1.3450000000000273,1.107499999999959,1.1866666666666486,Nb2Se2S4,0.045,-0.769,0.0,-50.081,8,3,6.14,17.062,26.75,8.25,2.3275
1796,1902,0.10750000000007276,0.11000000000012733,0.005000000000109139,0.07416666666676974,Rb6F6,0.028,-2.705,4.833,-47.438,12,2,5.802,31.402,23.0,4.0,2.4