,ind,max_valorX,max_valorY,max_valorZ,media,formula,Ehull,HF,Gap,Energy,natoms,nspecies,thickness,uc_area,average_atomic_number,average_valence_number,average_electronegativity
1535,1610,0.3149999999999977,0.3149999999999977,0.3149999999999977,0.3149999999999977,I2K2,0.134,-1.385,3.885,-10.937,4,2,1.887,44.466,36.0,9.0,1.74
1536,1611,0.347500000000025,0.2400000000000091,0.21000000000003638,0.26583333333335685,IMnSe,0.127,-0.317,0.0,-15.63,3,3,3.106,12.953,37.333333333333336,13.333333333333334,2.2533333333333334
1537,1612,0.8700000000000045,1.0300000000000296,0.9575000000000387,0.9525000000000242,TeIMn,0.1,-0.209,0.0,-15.028,3,3,3.311,13.95,43.333333333333336,13.333333333333334,2.103333333333333
1538,1613,0.7075000000000387,0.4550000000000409,0.3125,0.4916666666666932,I2Li2,0.052,-1.202,4.133,-11.543,4,2,3.341,16.933,28.0,9.0,1.82
1539,1614,0.5725000000000477,1.0200000000000387,1.177500000000009,0.9233333333333652,IVS,0.131,-0.648,0.157,-16.026,3,3,2.823,12.287,30.666666666666668,9.333333333333334,2.29
1540,1615,1.6949999999999932,1.6949999999999932,1.6949999999999932,1.6949999999999932,TeIV,0.133,-0.273,0.578,-14.026,3,3,3.507,11.31,42.666666666666664,12.666666666666666,2.13
1541,1616,1.3774999999999977,3.1575000000000273,2.4050000000000296,2.3133333333333517,TeMnS,0.016,-0.367,0.0,-18.102,3,3,2.893,10.862,31.0,9.666666666666666,2.0766666666666667
1542,1617,0.25,0.25,0.3650000000000091,0.2883333333333364,I2Na2,0.042,-1.254,3.592,-10.588,4,2,3.566,20.186,32.0,9.0,1.7950000000000002
1543,1618,0.26249999999998863,0.1974999999999909,0.19999999999998863,0.2199999999999894,I2Na2,0.085,-1.212,3.961,-10.418,4,2,2.59,32.019,32.0,9.0,1.7950000000000002
1544,1619,0.39749999999997954,0.3575000000000159,0.2699999999999818,0.34166666666665907,TeMnSe,0.005,-0.329,0.0,-17.392,3,3,3.002,11.319,37.0,13.0,2.066666666666667
1545,1621,0.27499999999997726,0.31500000000005457,0.33749999999997726,0.3091666666666697,I2Ni2,0.184,0.087,0.0,-17.104,4,2,3.836,13.791,40.5,13.5,2.285
1546,1622,0.4075000000000273,0.4800000000000182,0.2825000000000273,0.39000000000002427,I2Ni2,0.192,0.095,0.0,-17.071,4,2,3.452,15.265,40.5,13.5,2.285
1547,1625,0.5799999999999841,0.5799999999999841,0.5799999999999841,0.5799999999999841,Pd2I2,0.021,-0.17,0.0,-11.276,4,2,4.067,14.543,49.5,13.5,2.43
1548,1626,0.3149999999999977,0.30000000000001137,0.3725000000000023,0.32916666666667044,Pd2I2,0.192,0.001,0.0,-10.592,4,2,4.117,15.302,49.5,13.5,2.43
1549,1627,0.5600000000000023,0.5600000000000023,0.5600000000000023,0.5600000000000023,Pt2I2,0.026,-0.1,0.355,-16.064,4,2,4.396,13.6,65.5,13.5,2.4699999999999998
1550,1629,0.2599999999999909,0.2599999999999909,0.2599999999999909,0.2599999999999909,Rb2I2,0.137,-1.397,3.714,-10.364,4,2,1.794,49.467,45.0,9.0,1.74
1551,1631,1.3249999999999886,1.3249999999999886,1.3249999999999886,1.3249999999999886,Sb2I2,0.127,-0.122,0.586,-12.256,4,2,5.53,23.923,52.0,16.0,2.355
1552,1632,1.3524999999999636,1.3524999999999636,1.3524999999999636,1.3524999999999636,I2Sc2,0.094,-0.765,0.0,-15.335,4,2,6.411,12.569,37.0,10.0,2.0100000000000002
1553,1633,1.3050000000000068,1.3050000000000068,1.3050000000000068,1.3050000000000068,I2Sc2,0.149,-0.71,0.0,-15.117,4,2,6.447,12.506,37.0,10.0,2.0100000000000002
1554,1634,0.7125000000000341,0.7750000000000341,0.6800000000000068,0.722500000000025,I2Ti2,0.194,-0.347,0.0,-17.724,4,2,4.168,15.059,37.5,10.5,2.1
1555,1635,0.9175000000000182,0.9175000000000182,0.9175000000000182,0.9175000000000182,GaSe2Al,0.022,-0.664,2.049,-16.264,4,3,4.869,12.499,28.0,12.0,2.13
1556,1636,0.34000000000003183,1.535000000000025,0.43250000000000455,0.7691666666666871,Tl2I2,0.076,-0.601,2.399,-10.358,4,2,3.321,31.104,67.0,15.0,2.35
1557,1639,2.372500000000059,2.3274999999999864,2.3274999999999864,2.3425000000000105,AuCuBr2,0.018,-0.238,2.084,-10.929,4,3,3.9,17.036,44.5,14.0,2.59
1558,1640,1.3525000000000205,1.3525000000000205,1.4675000000000296,1.390833333333357,In2S2,0.0,-0.556,1.675,-15.905,4,2,5.174,13.271,32.5,9.5,2.18
1559,1641,2.8950000000000387,2.9325000000000045,2.8950000000000387,2.9075000000000273,In2S2,0.004,-0.552,1.604,-15.89,4,2,5.167,13.304,32.5,9.5,2.18
1560,1642,0.9350000000000023,0.9350000000000023,0.9350000000000023,0.9350000000000023,In2S2,0.036,-0.52,1.973,-15.762,4,2,3.113,21.957,32.5,9.5,2.18
1561,1643,2.1625000000000227,2.1625000000000227,2.242500000000007,2.1891666666666842,In2Se2,0.0,-0.538,1.404,-14.642,4,2,5.367,14.376,41.5,14.5,2.165
1562,1644,3.4674999999999727,3.5600000000000023,3.4674999999999727,3.4983333333333158,In2Se2,0.003,-0.534,1.321,-14.629,4,2,5.356,14.449,41.5,14.5,2.165
1563,1645,1.3900000000000432,1.3900000000000432,1.3900000000000432,1.3900000000000432,In2Se2,0.038,-0.5,1.63,-14.491,4,2,3.386,23.013,41.5,14.5,2.165
1564,1646,2.465000000000032,2.465000000000032,2.465000000000032,2.465000000000032,In2Te2,0.0,-0.35,1.233,-13.337,4,2,5.574,16.537,50.5,14.5,1.94
1565,1647,4.229999999999961,4.232499999999959,4.229999999999961,4.230833333333294,In2Te2,0.003,-0.347,1.145,-13.323,4,2,5.558,16.623,50.5,14.5,1.94
1566,1648,1.7699999999999818,1.7699999999999818,1.7699999999999818,1.7699999999999818,In2Te2,0.039,-0.311,1.072,-13.18,4,2,3.743,25.077,50.5,14.5,1.94
1567,1649,3.722500000000025,3.722500000000025,3.722500000000025,3.722500000000025,In2Te2,0.093,-0.257,0.0,-12.965,4,2,3.5,18.711,50.5,14.5,1.94
1568,1650,0.23500000000001364,0.5874999999999773,0.6024999999999636,0.4749999999999848,Ir2S2,0.158,-0.194,0.041,-27.483,4,2,4.65,9.315,46.5,7.5,2.39
1569,1651,1.3324999999999818,1.462500000000034,2.1200000000000045,1.63833333333334,Pd2IBr,0.038,-0.198,0.0,-11.496,4,3,4.018,13.84,45.0,13.5,2.505
1570,1652,0.2574999999999932,0.24500000000000455,1.7175000000000296,0.7400000000000091,Tl2IBr,0.036,-0.742,1.946,-11.026,4,3,3.305,23.982,62.5,15.0,2.425
1571,1653,1.375,1.375,1.375,1.375,Os2Rb2N2O2F10,0.0,-1.966,0.895,-102.405,18,5,10.298,29.472,19.22222222222222,6.111111111111111,3.2666666666666666
1572,1654,0.20274999999998045,0.20274999999998045,0.20274999999998045,0.20274999999998045,SiCH2,0.062,-0.148,3.781,-21.859,4,3,3.182,8.48,5.5,2.5,2.2125
1573,1655,1.2075000000000387,1.2150000000000318,1.2075000000000387,1.2100000000000364,Te2Mg2,0.083,-0.797,2.703,-12.832,4,2,3.214,22.101,32.0,9.0,1.705
1574,1656,0.5249999999999773,0.5,0.5,0.5083333333333258,Mn2S2,0.077,-0.412,0.0,-29.238,4,2,3.183,10.021,20.5,6.5,2.065
1575,1657,0.5374999999999659,0.5474999999999568,0.5399999999999636,0.5416666666666288,Mn2S2,0.134,-0.354,0.0,-29.007,4,2,2.977,14.684,20.5,6.5,2.065
1576,1658,61.9,61.9,61.9,61.9,Mn2Se2,0.038,-0.314,0.0,-27.654,4,2,3.139,12.914,29.5,11.5,2.05
1577,1659,0.32000000000005,0.3774999999999977,1.6050000000000182,0.7675000000000219,IGa2Cl,0.062,-0.511,1.84,-11.113,4,3,3.025,21.419,33.0,12.5,2.3600000000000003
1578,1660,1.2374999999999545,1.2374999999999545,1.2374999999999545,1.2374999999999545,CrO2H,0.181,-1.474,0.092,-28.878,4,3,2.969,8.016,10.25,4.75,2.6849999999999996
1579,1661,0.19999999999998863,0.19499999999999318,0.1775000000000091,0.1908333333333303,CrS2H,0.078,-0.447,1.115,-22.679,4,3,3.849,11.054,14.25,4.75,2.255
1580,1662,1.4574999999999818,1.4574999999999818,1.4574999999999818,1.4574999999999818,CrOF2,0.062,-2.247,0.0,-26.694,4,3,2.517,10.704,12.5,6.5,3.2649999999999997
1581,1663,0.05849999999999511,0.07450000000000045,0.20924999999999727,0.11408333333333094,Tl2Na2,0.083,-0.043,0.241,-7.782,4,2,5.956,14.169,46.0,7.0,1.485
1582,1664,0.2899999999999636,0.25499999999999545,0.2675000000000409,0.2708333333333333,Ni2O2,0.032,-0.5,0.0,-26.743,4,2,1.944,12.649,18.0,8.0,2.675
1583,1665,0.7050000000000409,0.7050000000000409,0.7050000000000409,0.7050000000000409,Ni2O2,0.115,-0.417,0.0,-26.409,4,2,0.0,14.879,18.0,8.0,2.675
1584,1666,0.15749999999997044,0.152499999999975,0.2300000000000182,0.17999999999998786,Ni2S2,0.042,-0.336,0.0,-23.996,4,2,2.984,11.304,22.0,8.0,2.245
1585,1667,0.3149999999999977,0.37000000000000455,0.34000000000003183,0.34166666666667805,Ni2S2,0.09,-0.288,0.0,-23.803,4,2,2.835,12.52,22.0,8.0,2.245
1586,1668,0.375,0.347500000000025,0.347500000000025,0.35666666666668334,Ni2S2,0.098,-0.28,0.0,-23.771,4,2,2.296,14.494,22.0,8.0,2.245
1587,1669,0.22249999999996817,0.2925000000000182,0.33749999999997726,0.2841666666666545,Ni2Se2,0.022,-0.263,0.0,-22.512,4,2,3.261,12.131,31.0,13.0,2.23
1588,1670,0.8774999999999409,1.0649999999999409,0.92999999999995,0.957499999999944,Ni2Se2,0.04,-0.245,0.0,-22.442,4,2,3.101,13.13,31.0,13.0,2.23
1589,1671,0.37249999999994543,0.3549999999999045,0.28499999999996817,0.33749999999993935,Ni2Se2,0.087,-0.198,0.0,-22.253,4,2,2.618,15.158,31.0,13.0,2.23
1590,1672,0.3100000000000591,0.3975000000000364,0.375,0.36083333333336515,Te2Ni2,0.036,-0.167,0.0,-21.572,4,2,3.615,13.169,40.0,13.0,2.005
1591,1673,0.6375000000000455,0.47250000000008185,0.2900000000000773,0.4666666666667349,Te2Ni2,0.063,-0.14,0.0,-21.463,4,2,3.531,13.328,40.0,13.0,2.005
1592,1674,1.1475000000000364,1.3324999999999818,1.2000000000000455,1.2266666666666879,Te2Ni2,0.068,-0.135,0.0,-21.443,4,2,3.448,13.958,40.0,13.0,2.005
1593,1675,0.5074999999999932,0.5074999999999932,0.5074999999999932,0.5074999999999932,InGaS2,0.024,-0.586,1.769,-16.167,4,3,4.944,12.319,28.0,9.5,2.1875
1594,1676,1.0375000000000227,1.0375000000000227,1.0375000000000227,1.0375000000000227,InTe2Ga,0.019,-0.343,0.966,-13.448,4,3,5.295,15.712,46.0,14.5,1.9475000000000002
1595,1677,0.7475000000000023,0.6424999999999841,0.4574999999999818,0.6158333333333227,Pb2O2,0.0,-1.163,2.406,-22.418,4,2,2.4,16.215,45.0,10.0,2.885
1596,1678,0.589999999999975,0.8299999999999841,0.7749999999999773,0.7316666666666455,Sn2O2,0.047,-1.256,2.493,-23.386,4,2,2.37,16.78,29.0,10.0,2.7
1597,1679,1.8174999999999955,1.8174999999999955,1.8174999999999955,1.8174999999999955,Tl2O2,0.195,-0.479,0.0,-17.161,4,2,4.558,11.305,44.5,9.5,2.74
1598,1680,61.9,61.9,61.9,61.9,HfZrSe2,0.075,-1.117,0.0,-26.343,4,3,3.899,12.956,45.0,10.0,1.9324999999999999
1599,1681,1.5575000000000045,1.5575000000000045,1.5575000000000045,1.5575000000000045,PdIF2,0.079,-0.933,0.0,-12.205,4,3,3.223,14.439,29.25,10.25,3.205
1600,1682,1.1574999999999704,0.4399999999999977,0.6399999999999864,0.7458333333333181,Sb2P2,0.17,0.17,0.804,-18.863,4,2,2.024,22.139,33.0,10.0,2.12
1601,1683,0.4000000000000341,2.319999999999993,1.5225000000000364,1.4141666666666879,Pb2S2,0.054,-0.514,1.162,-17.73,4,2,2.821,17.994,49.0,10.0,2.455
1602,1684,2.769999999999982,2.8000000000000114,2.7924999999999613,2.787499999999985,Pb2Se2,0.072,-0.51,0.789,-16.523,4,2,2.856,19.401,58.0,15.0,2.44
1603,1685,3.305000000000007,3.3374999999999773,3.3249999999999886,3.322499999999991,Pb2Te2,0.075,-0.346,0.445,-15.311,4,2,3.338,21.527,67.0,15.0,2.215
1604,1686,0.8425000000000296,0.8425000000000296,0.8650000000000091,0.8500000000000227,Pd2Se2,0.183,-0.164,0.0,-15.26,4,2,3.467,14.045,40.0,13.0,2.375
1605,1687,0.8824999999999932,0.8824999999999932,0.8824999999999932,0.8824999999999932,Pd2Te2,0.134,-0.244,0.0,-15.026,4,2,3.761,15.125,49.0,13.0,2.1500000000000004
1606,1688,1.4600000000000364,1.4675000000000296,1.4650000000000318,1.4641666666666993,Pt2Se2,0.194,-0.167,0.0,-20.341,4,2,3.218,15.743,56.0,13.0,2.415
1607,1689,0.5799999999999841,0.5799999999999841,0.5799999999999841,0.5799999999999841,Pt2Te2,0.048,-0.333,0.0,-20.45,4,2,4.013,13.701,65.0,13.0,2.19
1608,1690,0.5024999999999977,0.5,0.6000000000000227,0.5341666666666735,Pt2Te2,0.164,-0.217,0.0,-19.985,4,2,4.069,14.101,65.0,13.0,2.19
1609,1691,0.7350000000000136,0.7350000000000136,0.7350000000000136,0.7350000000000136,RhNiSe2,0.072,-0.256,0.0,-22.385,4,3,3.249,13.118,35.25,12.75,2.3225
1610,1692,1.4149999999999636,1.4350000000000023,1.7824999999999704,1.5441666666666454,ScNiSe2,0.002,-1.012,0.0,-22.92,4,3,3.096,14.168,29.25,11.25,2.0925
1611,1693,0.5924999999999727,0.6075000000000159,0.6324999999999932,0.6108333333333272,Rh2S2,0.161,-0.318,0.0,-23.721,4,2,3.02,12.809,30.5,7.5,2.4299999999999997
1612,1694,0.875,0.8574999999999591,0.9900000000000091,0.9074999999999894,Rh2Se2,0.05,-0.279,0.0,-22.375,4,2,3.248,13.833,39.5,12.5,2.415
1613,1695,1.0699999999999932,1.0699999999999932,1.0699999999999932,1.0699999999999932,OsBr2O,0.0,-0.56,0.0,-21.726,4,3,3.407,14.126,38.5,12.0,2.89
1614,1696,1.392500000000041,1.392500000000041,1.392500000000041,1.392500000000041,OsCl2O,0.0,-0.731,0.0,-22.807,4,3,3.163,13.391,29.5,7.0,2.9899999999999998
1615,1697,1.4675000000000864,1.4675000000000864,1.4675000000000864,1.4675000000000864,OsOF2,0.0,-1.468,0.0,-25.362,4,3,2.486,11.936,25.5,7.0,3.4000000000000004
1616,1698,1.357500000000016,1.357500000000016,1.357500000000016,1.357500000000016,Rh2Te2,0.059,-0.331,0.0,-22.029,4,2,3.285,16.402,48.5,12.5,2.19
1617,1699,0.8350000000000364,0.82000000000005,0.9900000000000091,0.8816666666666985,Rh2Te2,0.09,-0.3,0.0,-21.904,4,2,3.495,15.162,48.5,12.5,2.19
1618,1700,1.9599999999999795,1.9899999999999523,1.9774999999999636,1.9758333333332985,Rh2Te2,0.13,-0.26,0.0,-21.744,4,2,3.569,15.391,48.5,12.5,2.19
1619,1701,0.7799999999999727,0.8424999999999727,0.7799999999999727,0.8008333333333061,OsI2O,0.035,-0.33,0.0,-20.593,4,3,3.661,15.301,47.5,12.0,2.74
1620,1702,0.25,0.1875,0.16250000000002274,0.2000000000000076,RuBr2O,0.0,-0.639,0.0,-20.314,4,3,3.462,13.852,30.5,12.0,2.89
1621,1703,0.20000000000004547,0.19000000000005457,0.1400000000000432,0.1766666666667144,Ru2S2,0.05,-0.376,0.0,-28.587,4,2,2.499,15.089,30.0,7.0,2.39
1622,1704,0.4149999999999636,0.3125,0.2925000000000182,0.3399999999999939,RuCl2O,0.0,-0.798,0.0,-21.348,4,3,3.229,13.093,21.5,7.0,2.9899999999999998
1623,1705,0.5325000000000273,0.5325000000000273,0.5325000000000273,0.5325000000000273,RuOF2,0.0,-1.58,0.0,-24.081,4,3,2.572,11.462,17.5,7.0,3.4000000000000004
1624,1706,0.46750000000002956,0.4375,0.3849999999999909,0.4300000000000068,RuI2O,0.021,-0.425,0.0,-19.243,4,3,3.705,15.072,39.5,12.0,2.74
1625,1707,0.5,0.4700000000000273,0.4449999999999932,0.4716666666666735,Ru2Se2,0.087,-0.227,0.0,-26.799,4,2,2.789,15.822,39.0,12.0,2.375
1626,1708,1.052500000000009,1.052500000000009,1.052500000000009,1.052500000000009,VBr2O,0.0,-1.426,0.77,-22.52,4,3,3.517,13.93,25.25,11.25,2.7475
1627,1709,1.3525000000000205,1.3525000000000205,1.3525000000000205,1.3525000000000205,VCl2O,0.0,-1.647,0.806,-23.805,4,3,3.253,13.247,16.25,6.25,2.8475
1628,1710,0.5875000000000341,0.5225000000000364,0.5049999999999955,0.5383333333333553,Ru2Te2,0.161,-0.091,0.0,-25.699,4,2,3.108,16.93,48.0,12.0,2.1500000000000004
1629,1711,1.5499999999999545,1.5499999999999545,1.5499999999999545,1.5499999999999545,VOF2,0.001,-2.707,0.759,-27.649,4,3,2.485,11.443,12.25,6.25,3.2575000000000003
1630,1712,0.777499999999975,0.8274999999999864,0.777499999999975,0.7941666666666455,I2VO,0.0,-1.14,0.503,-21.164,4,3,3.825,15.219,34.25,11.25,2.5975
1631,1713,0.19999999999998863,0.16999999999995907,0.15999999999996817,0.17666666666663863,ZrBr2O,0.0,-2.085,1.048,-24.035,4,3,4.499,11.671,29.5,11.0,2.6725
1632,1714,1.1374999999999886,3.457499999999982,2.6124999999999545,2.402499999999975,Sn2S2,0.043,-0.415,1.414,-17.928,4,2,2.864,17.575,33.0,10.0,2.27
1633,1715,0.6999999999999886,0.29750000000001364,0.39749999999997954,0.4649999999999939,Sn2S2,0.062,-0.396,1.834,-17.852,4,2,2.219,22.178,33.0,10.0,2.27
1634,1716,0.5825000000000387,0.5049999999999955,0.5049999999999955,0.5308333333333431,PdTiS2,0.034,-0.967,0.319,-22.536,4,3,2.656,16.082,25.0,6.5,2.225
1635,1717,1.4850000000000136,1.4850000000000136,1.509999999999991,1.4933333333333394,Tl2S2,0.119,-0.145,0.673,-13.732,4,2,5.282,14.257,48.5,9.5,2.31
1636,1718,2.917500000000018,2.917500000000018,2.917500000000018,2.917500000000018,Tl2S2,0.12,-0.144,0.628,-13.726,4,2,5.278,14.282,48.5,9.5,2.31
1637,1719,1.572499999999991,1.267499999999984,1.767499999999984,1.5358333333333196,Ge2SeS,0.032,-0.222,1.262,-17.481,4,3,2.504,16.569,28.5,12.5,2.2874999999999996
1638,1720,0.4449999999999932,0.4449999999999932,0.4449999999999932,0.4449999999999932,V2S2,0.194,-0.768,0.0,-28.276,4,2,3.295,11.779,19.5,5.5,2.105
1639,1721,2.802500000000009,2.802500000000009,2.802500000000009,2.802500000000009,Ni2SeS,0.083,-0.249,0.0,-23.05,4,3,2.468,14.746,26.5,10.5,2.2375
1640,1722,0.5775000000000432,0.6925000000000523,2.13250000000005,1.1341666666667152,Sn2SeS,0.044,-0.4,1.064,-17.275,4,3,2.806,18.379,37.5,12.5,2.2625
1641,1723,2.275000000000034,2.275000000000034,2.275000000000034,2.275000000000034,TeGe2S,0.076,-0.11,0.89,-16.753,4,3,2.702,17.728,33.0,12.5,2.175
1642,1724,1.2274999999999636,1.2274999999999636,1.2274999999999636,1.2274999999999636,In2TeS,0.041,-0.412,0.607,-14.458,4,3,5.33,14.982,41.5,12.0,2.06
1643,1725,2.8125,1.892500000000041,1.8100000000000023,2.171666666666681,Zr2TeS,0.074,-1.093,0.0,-26.462,4,3,3.948,13.318,37.0,7.5,1.835
1644,1727,0.6850000000000023,3.1825000000000045,2.5925000000000296,2.1533333333333453,Sn2Se2,0.043,-0.389,0.923,-16.633,4,2,2.759,18.898,42.0,15.0,2.255
1645,1728,1.7000000000000455,0.2750000000000341,1.4850000000000136,1.1533333333333644,Sn2Se2,0.071,-0.361,1.59,-16.522,4,2,2.05,24.16,42.0,15.0,2.255
1646,1737,4.707500000000039,4.707500000000039,4.707500000000039,4.707500000000039,Tl2Se2,0.048,-0.224,0.0,-12.858,4,2,3.296,17.276,57.5,14.5,2.295
1647,1738,2.3450000000000273,2.3450000000000273,2.3450000000000273,2.3450000000000273,Tl2Se2,0.076,-0.196,0.494,-12.747,4,2,5.469,15.442,57.5,14.5,2.295
1648,1739,3.6374999999999886,3.669999999999959,3.6374999999999886,3.648333333333312,Tl2Se2,0.078,-0.195,0.449,-12.741,4,2,5.463,15.489,57.5,14.5,2.295
1649,1743,0.9750000000000227,0.9750000000000227,1.0550000000000068,1.001666666666684,V2Se2,0.114,-0.524,0.0,-26.111,4,2,3.627,12.454,28.5,10.5,2.09
1650,1744,0.6525000000000318,0.6525000000000318,0.6525000000000318,0.6525000000000318,Al2S4H2,0.0,-0.74,2.002,-36.355,8,3,6.063,17.023,11.5,4.0,2.2425
1651,1747,0.8174999999999955,0.7425000000000637,0.7549999999999955,0.7716666666666848,Cu2As2S4,0.054,-0.152,0.296,-34.21,8,3,4.971,22.154,23.5,9.5,2.31
1652,1748,0.4774999999999636,0.7749999999999773,0.4074999999999136,0.5533333333332848,Cu2As2Se4,0.058,-0.089,0.186,-31.324,8,3,5.047,25.272,32.5,14.5,2.295
1653,1749,0.49749999999994543,0.8924999999999272,0.33999999999991815,0.5766666666665969,Te4Cu2As2,0.084,0.033,0.0,-29.236,8,3,5.28,29.256,41.5,14.5,2.07
1654,1750,1.49249999999995,1.49249999999995,1.49249999999995,1.49249999999995,Au2Br2S4,0.036,-0.043,1.01,-26.089,8,3,3.53,40.581,36.5,10.0,2.665
1655,1751,1.6024999999999636,1.6024999999999636,1.6024999999999636,1.6024999999999636,Au2Br2S4,0.041,-0.039,0.984,-26.05,8,3,3.069,43.984,36.5,10.0,2.665
1656,1752,3.2649999999999864,3.2649999999999864,3.2649999999999864,3.2649999999999864,Sn2Te2,0.063,-0.215,0.603,-15.384,4,2,3.155,20.827,51.0,15.0,2.0300000000000002
1657,1753,2.1225000000000023,2.1225000000000023,2.1225000000000023,2.1225000000000023,Sn2Te2,0.104,-0.174,1.252,-15.22,4,2,2.333,27.243,51.0,15.0,2.0300000000000002
1658,1754,0.3549999999999045,0.3549999999999045,0.7199999999999136,0.4766666666665742,Au2Te4Br2,0.085,-0.11,1.013,-23.131,8,3,3.249,49.955,54.5,15.0,2.425
1659,1755,1.9025000000000318,1.9025000000000318,1.9025000000000318,1.9025000000000318,Au2S4Cl2,0.04,-0.094,1.193,-26.896,8,3,3.309,39.567,32.0,7.5,2.715
1660,1756,0.5599999999999454,0.5599999999999454,0.5599999999999454,0.5599999999999454,Au2Se4Cl2,0.071,-0.121,1.088,-24.726,8,3,3.11,43.782,41.0,12.5,2.7
1661,1757,0.6075000000000728,0.6075000000000728,0.6075000000000728,0.6075000000000728,Au2Se4Cl2,0.079,-0.113,0.883,-24.664,8,3,3.418,41.225,41.0,12.5,2.7
1662,1758,0.6750000000001819,0.6750000000001819,0.6750000000001819,0.6750000000001819,Au2Te4Cl2,0.128,-0.158,0.981,-23.917,8,3,3.017,49.09,50.0,12.5,2.475
1663,1759,1.4100000000000819,1.4100000000000819,1.4100000000000819,1.4100000000000819,Au2I2S4,0.056,0.007,0.862,-25.475,8,3,3.581,43.932,41.0,10.0,2.59
1664,1760,4.8075000000000045,4.817500000000052,4.82000000000005,4.815000000000036,Tl2Te2,0.092,-0.134,0.0,-11.943,4,2,3.611,19.443,66.5,14.5,2.0700000000000003
1665,1761,2.6999999999999886,2.6999999999999886,2.6999999999999886,2.6999999999999886,Tl2Te2,0.137,-0.089,0.339,-11.763,4,2,5.667,17.623,66.5,14.5,2.0700000000000003