,ind,max_valorX,max_valorY,max_valorZ,media,formula,Ehull,HF,Gap,Energy,natoms,nspecies,thickness,uc_area,average_atomic_number,average_valence_number,average_electronegativity
3136,3317,61.9,61.9,61.9,61.9,Sr2Cl4O4H8,0.023,-1.544,5.57,-85.378,18,4,3.519,48.958,10.222222222222221,3.5555555555555554,2.5500000000000003
3137,3318,0.6299999999998818,0.6275000000000546,0.6275000000000546,0.6283333333333303,InI4NaO12,0.0,-0.517,2.81,-80.775,18,4,6.994,36.324,20.444444444444443,8.555555555555555,3.035
3138,3319,61.9,61.9,61.9,61.9,Sr2O4F4H8,0.074,-2.005,5.779,-92.876,18,4,3.615,35.819,8.444444444444445,3.5555555555555554,2.732222222222222
3139,3320,61.9,61.9,61.9,61.9,Sr2I4O4H8,0.0,-1.31,4.111,-79.944,18,4,3.511,58.9,18.22222222222222,5.777777777777778,2.438888888888889
3140,3321,0.6849999999999454,0.6775000000000091,0.6775000000000091,0.6799999999999878,TlI4LiO12,0.0,-0.395,2.17,-78.906,18,4,7.015,35.404,21.77777777777778,8.555555555555555,3.052222222222222
3141,3322,61.9,61.9,61.9,61.9,Sr2I4S4H8,0.0,-0.71,4.042,-64.943,18,4,5.212,62.852,20.0,5.777777777777778,2.247777777777778
3142,3323,0.6150000000000091,0.6100000000001273,0.6225000000001728,0.6158333333334364,TlI4NaO12,0.006,-0.388,2.078,-78.198,18,4,7.048,37.135,22.22222222222222,8.555555555555555,3.0494444444444446
3143,3324,0.032500000000027285,0.029999999999972715,0.029999999999972715,0.030833333333324237,K2B2O8H8,0.027,-1.564,4.387,-114.727,20,4,4.801,41.072,6.0,3.2,2.5420000000000003
3144,3325,0.24249999999994998,0.24249999999994998,0.24249999999994998,0.24249999999994998,K2S8B2H8,0.0,-0.483,4.058,-84.724,20,4,6.612,63.73,9.2,3.2,2.198
3145,3326,0.03999999999996362,0.02750000000014552,0.035000000000081855,0.03416666666673033,Li2B2O8H8,0.028,-1.594,4.88,-116.658,20,4,4.743,29.646,4.4,3.2,2.5580000000000003
3146,3327,0.024999999999863576,0.02250000000003638,0.024999999999863576,0.024166666666587844,Na2B2O8H8,0.014,-1.563,4.681,-114.864,20,4,5.114,34.251,5.2,3.2,2.553
3147,3328,0.24249999999994998,0.24249999999994998,0.24249999999994998,0.24249999999994998,Na2S8B2H8,0.0,-0.448,4.088,-84.211,20,4,6.546,55.095,8.4,3.2,2.209
3148,3329,6.392500000000041,1.9500000000000455,2.5025000000000546,3.615000000000047,CdCl2C4N2H4,0.141,-0.27,2.176,-74.89,13,5,4.036,29.354,9.538461538461538,4.3076923076923075,2.5453846153846156
3149,3330,1.8574999999998454,1.849999999999909,1.8550000000000182,1.8541666666665908,In8I6BrS4Cl,0.037,-0.567,1.284,-61.999,20,5,7.184,69.618,41.3,12.7,2.332
3150,3331,1.822499999999991,1.822499999999991,1.822499999999991,1.822499999999991,I6Sc8Se4SCl,0.0,-1.523,0.0,-96.404,20,5,6.732,53.739,32.75,10.15,2.1390000000000002
3151,3332,1.0375000000001364,1.0375000000001364,1.0375000000001364,1.0375000000001364,Ti8SeSCl6N4,0.002,-1.605,0.0,-137.296,20,5,5.565,36.159,17.8,5.8,2.4285000000000005
3152,3333,1.665000000000191,1.665000000000191,1.665000000000191,1.665000000000191,Mo2As2O10,0.087,-1.544,0.0,-104.59,14,3,6.464,38.018,16.428571428571427,7.285714285714286,3.077142857142857
3153,3334,1.5450000000000728,1.5450000000000728,1.5450000000000728,1.5450000000000728,Nb2Cr2S10,0.0,-0.761,0.0,-90.905,14,3,7.312,33.467,20.714285714285715,5.857142857142857,2.3085714285714287
3154,3335,2.0775000000001,2.0775000000001,2.0775000000001,2.0775000000001,Nb2Cr2Se10,0.005,-0.613,0.0,-82.886,14,3,7.759,36.515,33.57142857142857,13.0,2.287142857142857
3155,3336,2.285000000000082,2.285000000000082,2.285000000000082,2.285000000000082,Nb2Te10Cr2,0.003,-0.313,0.075,-75.895,14,3,8.44,41.952,46.42857142857143,13.0,1.9657142857142857
3156,3337,0.7300000000000182,0.7300000000000182,0.7300000000000182,0.7300000000000182,I2Mn7GaBr4S4Cl2,0.067,-0.603,0.129,-112.15,20,6,6.56,50.405,27.5,10.1,2.323
3157,3338,1.6649999999999636,1.6649999999999636,1.6649999999999636,1.6649999999999636,Ta2Cr2S10,0.017,-0.753,0.0,-89.779,14,3,7.299,33.66,25.285714285714285,5.857142857142857,2.2942857142857145
3158,3339,2.322499999999991,2.322499999999991,2.322499999999991,2.322499999999991,Ta2Cr2Se10,0.004,-0.593,0.0,-81.58,14,3,7.759,36.586,38.142857142857146,13.0,2.2728571428571427
3159,3340,2.502499999999827,2.502499999999827,2.502499999999827,2.502499999999827,Ta2Te10Cr2,0.006,-0.267,0.014,-74.238,14,3,8.402,42.206,51.0,13.0,1.9514285714285715
3160,3341,1.665000000000191,1.665000000000191,1.665000000000191,1.665000000000191,Mo2P2O10,0.0,-2.064,1.04,-113.273,14,3,6.227,37.234,13.857142857142858,5.857142857142857,3.0785714285714283
3161,3342,1.675000000000182,1.675000000000182,1.675000000000182,1.675000000000182,Mo2V2O10,0.0,-2.166,0.003,-121.016,14,3,6.354,43.639,15.0,5.857142857142857,2.998571428571428
3162,3343,1.0625,1.0625,1.0625,1.0625,Nb2Ni2S10,0.052,-0.565,0.0,-83.837,14,3,3.673,43.477,21.285714285714285,6.428571428571429,2.3442857142857143
3163,3344,1.2425000000000637,1.197499999999991,1.2000000000000455,1.2133333333333667,Nb2Ni2Se10,0.0,-0.531,0.0,-77.414,14,3,4.014,48.067,34.142857142857146,13.571428571428571,2.3228571428571425
3164,3345,0.9725000000000819,0.7699999999999818,0.837500000000091,0.8600000000000515,Nb2Te10Ni2,0.013,-0.338,0.0,-71.934,14,3,4.478,56.213,47.0,13.571428571428571,2.0014285714285713
3165,3346,0.875,0.8299999999999272,0.849999999999909,0.8516666666666121,Nb2Pd2S10,0.077,-0.542,0.0,-76.659,14,3,3.613,45.907,23.857142857142858,6.428571428571429,2.3857142857142857
3166,3347,0.8574999999998454,0.7849999999998545,0.8249999999998181,0.8224999999998394,Nb2Pd2Se10,0.011,-0.537,0.0,-70.632,14,3,3.968,50.614,36.714285714285715,13.571428571428571,2.3642857142857143
3167,3348,1.5275000000001455,1.5150000000001,1.5150000000001,1.5191666666667818,Nb2Pd2Te10,0.006,-0.385,0.0,-65.733,14,3,4.492,58.997,49.57142857142857,13.571428571428571,2.042857142857143
3168,3349,1.2024999999998727,1.197499999999991,1.197499999999991,1.199166666666618,Pt2Nb2S10,0.056,-0.597,0.0,-82.504,14,3,3.615,46.337,28.428571428571427,6.428571428571429,2.3971428571428572
3169,3350,1.5774999999998727,1.5774999999998727,1.5774999999998727,1.5774999999998727,Pt2Nb2Se10,0.01,-0.569,0.0,-76.15,14,3,3.941,50.998,41.285714285714285,13.571428571428571,2.3757142857142854
3170,3351,0.28749999999990905,0.28749999999990905,0.28749999999990905,0.28749999999990905,NiCl2C6N2H4,0.181,-0.081,0.858,-97.36,15,5,4.333,34.042,7.733333333333333,4.133333333333334,2.5606666666666666
3171,3352,1.7199999999998,1.7124999999998636,1.7124999999998636,1.7149999999998424,Pt2Nb2Te10,0.0,-0.412,0.0,-71.183,14,3,4.417,58.757,54.142857142857146,13.571428571428571,2.0542857142857143
3172,3353,1.2725000000000364,1.2675000000001546,1.2675000000001546,1.2691666666667818,Ta2Ni2S10,0.06,-0.58,0.0,-83.029,14,3,3.702,43.631,25.857142857142858,6.428571428571429,2.3300000000000005
3173,3354,1.2825000000000273,1.240000000000009,1.240000000000009,1.2541666666666818,Ta2Ni2Se10,0.0,-0.524,0.0,-76.286,14,3,4.032,48.231,38.714285714285715,13.571428571428571,2.3085714285714287
3174,3355,1.5199999999999818,1.4849999999999,1.490000000000009,1.4983333333332969,Ta2Te10Ni2,0.012,-0.301,0.0,-70.387,14,3,4.485,56.399,51.57142857142857,13.571428571428571,1.987142857142857
3175,3356,0.2699999999999818,0.2725000000000364,0.26500000000010004,0.2691666666667061,V2P2O10,0.0,-2.218,1.566,-110.067,14,3,2.164,38.963,11.142857142857142,5.714285714285714,3.0028571428571427
3176,3357,0.8875000000000455,0.8250000000000455,0.8475000000000819,0.8533333333333909,Ta2Pd2S10,0.073,-0.559,0.0,-75.878,14,3,3.639,46.024,28.428571428571427,6.428571428571429,2.3714285714285714
3177,3358,0.8500000000001364,0.7574999999999363,0.8025000000000091,0.8033333333333607,Ta2Pd2Se10,0.0,-0.531,0.0,-69.532,14,3,3.998,50.768,41.285714285714285,13.571428571428571,2.35
3178,3359,0.959999999999809,0.8924999999999272,0.9175000000000182,0.9233333333332515,Ta2Pd2Te10,0.0,-0.351,0.0,-64.236,14,3,4.511,59.121,54.142857142857146,13.571428571428571,2.0285714285714285
3179,3360,1.2949999999998454,1.2949999999998454,1.2949999999998454,1.2949999999998454,Ta2Pt2S10,0.049,-0.615,0.0,-81.733,14,3,3.644,46.443,33.0,6.428571428571429,2.382857142857143
3180,3361,1.740000000000009,1.740000000000009,1.740000000000009,1.740000000000009,Ta2Pt2Se10,0.002,-0.564,0.0,-75.061,14,3,3.964,51.096,45.857142857142854,13.571428571428571,2.3614285714285717
3181,3362,0.9500000000000455,0.8550000000000182,0.9049999999999727,0.9033333333333454,Ta2Pt2Te10,0.007,-0.377,0.0,-69.665,14,3,4.425,58.917,58.714285714285715,13.571428571428571,2.04
3182,3363,1.1924999999998818,1.0950000000000273,1.0850000000000364,1.1241666666666486,Ta2Te10V2,0.015,-0.3,0.003,-72.927,14,3,8.321,41.616,50.857142857142854,12.857142857142858,1.947142857142857
3183,3364,1.6724999999999,1.6724999999999,1.6724999999999,1.6724999999999,W2V2O10,0.033,-2.246,0.386,-122.7,14,3,6.394,44.549,19.571428571428573,5.857142857142857,3.0271428571428567
3184,3365,0.06500000000005457,0.37750000000005457,0.06749999999988177,0.16999999999999696,K2Se2MgO8H4,0.0,-1.405,4.373,-89.199,17,5,5.388,34.053,10.941176470588236,5.176470588235294,2.6100000000000003
3185,3366,0.29750000000012733,0.29750000000012733,0.29750000000012733,0.29750000000012733,K2Se2MgS8H4,0.084,-0.404,1.957,-63.81,17,5,7.13,51.784,14.705882352941176,5.176470588235294,2.2052941176470586
3186,3367,1.5625,1.5625,1.5625,1.5625,AuAgF6,0.0,-1.156,0.181,-24.741,8,3,2.64,28.692,22.5,8.0,3.5437499999999997
3187,3368,61.9,61.9,61.9,61.9,Te2K2MgO8H4,0.02,-1.461,3.982,-89.595,17,5,5.415,35.859,13.058823529411764,5.176470588235294,2.557058823529412
3188,3369,61.9,61.9,61.9,61.9,Te2K2MgS8H4,0.046,-0.462,2.345,-64.251,17,5,7.185,52.737,16.823529411764707,5.176470588235294,2.1523529411764706
3189,3372,0.049999999999954525,0.05999999999994543,0.6275000000000546,0.24583333333331817,MgS2Li2O8H4,0.063,-1.567,4.729,-94.481,17,5,4.973,27.314,6.9411764705882355,4.0,2.6323529411764706
3190,3373,9.194999999999936,9.194999999999936,9.194999999999936,9.194999999999936,PtAgBr6,0.0,-0.29,0.0,-21.023,8,3,3.092,40.558,41.875,15.375,2.74625
3191,3374,0.03499999999985448,0.044999999999845386,0.3125,0.1308333333332333,Se2MgLi2O8H4,0.006,-1.42,4.649,-90.8,17,5,5.179,28.48,9.058823529411764,5.176470588235294,2.628823529411765
3192,3375,0.06999999999993634,0.16499999999996362,0.06999999999993634,0.1016666666666121,Te2MgLi2O8H4,0.044,-1.481,4.041,-91.271,17,5,5.353,31.42,11.176470588235293,5.176470588235294,2.5758823529411767
3193,3376,61.9,61.9,61.9,61.9,Te2MgS8Li2H4,0.052,-0.433,2.083,-65.084,17,5,6.789,44.46,14.941176470588236,5.176470588235294,2.171176470588235
3194,3377,1.1725000000001273,1.1725000000001273,1.1725000000001273,1.1725000000001273,AuSnF6,0.0,-1.94,0.564,-32.23,8,3,2.948,27.634,22.875,8.375,3.5475
3195,3378,3.0874999999999773,3.0874999999999773,3.0874999999999773,3.0874999999999773,AuTlI6,0.058,-0.139,0.622,-15.611,8,3,4.31,49.873,59.75,15.75,2.5675
3196,3379,0.049999999999954525,0.0625,0.2300000000000182,0.11416666666665758,Na2MgS2O8H4,0.053,-1.541,4.454,-92.874,17,5,5.289,29.82,7.882352941176471,4.0,2.6264705882352946
3197,3380,0.044999999999845386,0.05749999999989086,0.30749999999989086,0.13666666666654237,Se2Na2MgO8H4,0.0,-1.399,4.574,-89.268,17,5,5.359,31.132,10.0,5.176470588235294,2.6229411764705883
3198,3381,61.9,61.9,61.9,61.9,Se2Na2MgS8H4,0.08,-0.374,2.104,-63.479,17,5,7.021,47.085,13.764705882352942,5.176470588235294,2.218235294117647
3199,3382,4.509999999999991,4.509999999999991,4.509999999999991,4.509999999999991,ZrCoBr6,0.0,-0.993,0.388,-33.085,8,3,3.379,37.495,34.625,14.375,2.62125
3200,3383,0.04250000000001819,0.052500000000009095,0.21499999999991815,0.10333333333331514,Te2Na2MgO8H4,0.016,-1.453,3.996,-89.638,17,5,5.441,32.346,12.117647058823529,5.176470588235294,2.57
3201,3384,61.9,61.9,61.9,61.9,Te2Na2MgS8H4,0.024,-0.43,2.339,-63.881,17,5,7.052,48.025,15.882352941176471,5.176470588235294,2.165294117647059
3202,3385,0.7274999999999636,0.9275000000000091,0.8700000000001182,0.841666666666697,Cu2Se5P2S,0.021,-0.113,0.0,-40.699,10,4,3.585,34.406,27.4,11.8,2.351
3203,3386,2.0599999999999454,2.0324999999999136,2.037499999999909,2.043333333333256,MnCuCl6,0.0,-0.73,0.546,-29.94,8,3,2.875,32.896,19.5,7.5,2.80125
3204,3387,61.9,61.9,61.9,61.9,HfFeBr6,0.0,-0.957,0.938,-33.713,8,3,2.965,36.005,38.5,14.25,2.6112499999999996
3205,3388,61.9,61.9,61.9,61.9,HfFeH6,0.055,-0.139,1.741,-37.605,8,3,1.992,16.606,13.0,2.25,2.0412500000000002
3206,3389,61.9,61.9,61.9,61.9,HfI6Fe,0.103,-0.521,0.781,-29.587,8,3,3.177,42.992,52.0,14.25,2.3862500000000004
3207,3390,1.4250000000000682,1.4125000000000227,1.4150000000000773,1.4175000000000562,ZrFeBr6,0.0,-0.961,0.871,-33.638,8,3,2.984,35.998,34.5,14.25,2.6149999999999998
3208,3391,0.4399999999999409,0.5575000000000045,0.5074999999999363,0.5016666666666273,ZrFeCl6,0.108,-1.32,1.048,-37.715,8,3,2.795,31.8,21.0,6.75,2.765
3209,3392,0.24750000000000227,0.2449999999999477,0.2449999999999477,0.24583333333329924,ZrFeH6,0.098,-0.137,1.61,-37.489,8,3,1.968,16.77,9.0,2.25,2.045
3210,3393,6.217499999999973,6.240000000000009,6.217499999999973,6.2249999999999845,ZrI6Fe,0.09,-0.535,0.661,-29.598,8,3,3.19,43.304,48.0,14.25,2.3899999999999997
3211,3394,2.6224999999999454,2.6224999999999454,2.6224999999999454,2.6224999999999454,PdGaBr6,0.028,-0.544,0.355,-20.586,8,3,3.122,37.581,35.875,15.625,2.7212499999999995
3212,3395,5.342499999999973,5.477499999999964,5.342499999999973,5.38749999999997,MnGeCl6,0.095,-0.887,0.273,-32.042,8,3,2.729,34.404,19.875,7.875,2.815
3213,3396,1.4849999999999,1.4849999999999,1.4849999999999,1.4849999999999,Mo2KBr6O2,-0.0,-1.218,0.0,-56.773,11,4,4.136,42.151,29.90909090909091,11.545454545454545,2.707272727272727
3214,3397,61.9,61.9,61.9,61.9,HfMnBr6,0.0,-1.209,0.016,-36.398,8,3,3.065,40.196,38.375,14.125,2.57625
3215,3398,1.1825000000001182,1.1825000000001182,1.1825000000001182,1.1825000000001182,Mo2I6KO2,0.025,-0.912,0.0,-52.78,11,4,4.469,46.011,39.72727272727273,11.545454545454545,2.5436363636363635
3216,3399,61.9,61.9,61.9,61.9,HfMnCl6,0.0,-1.575,0.034,-40.534,8,3,2.86,36.434,24.875,6.625,2.7262500000000003
3217,3400,61.9,61.9,61.9,61.9,HfI6Mn,0.0,-0.743,1.359,-32.04,8,3,3.326,46.579,51.875,14.125,2.3512500000000003
3218,3401,61.9,61.9,61.9,61.9,HfNiBr6,0.0,-1.047,1.355,-32.639,8,3,3.006,38.118,38.75,14.5,2.62125
3219,3402,1.6099999999999,1.6099999999999,1.6099999999999,1.6099999999999,W2KBr6O2,0.0,-1.238,0.0,-57.569,11,4,4.181,42.147,35.72727272727273,11.545454545454545,2.743636363636363
3220,3403,2.0325000000000273,2.0325000000000273,2.0325000000000273,2.0325000000000273,W2KCl6O2,0.0,-1.503,0.0,-61.686,11,4,3.883,39.788,25.90909090909091,6.090909090909091,2.8527272727272726
3221,3404,1.3174999999998818,1.3174999999998818,1.3174999999998818,1.3174999999998818,W2I6KO2,0.023,-0.902,0.0,-53.23,11,4,4.526,46.053,45.54545454545455,11.545454545454545,2.58
3222,3405,61.9,61.9,61.9,61.9,HfNiCl6,0.0,-1.395,1.62,-36.627,8,3,2.811,34.064,25.25,7.0,2.77125
3223,3406,61.9,61.9,61.9,61.9,HfNiF6,0.024,-3.035,1.91,-48.551,8,3,2.205,25.788,19.25,7.0,3.38625
3224,3407,61.9,61.9,61.9,61.9,HfI6Ni,0.011,-0.616,0.862,-28.555,8,3,3.241,44.679,52.25,14.5,2.39625
3225,3408,61.9,61.9,61.9,61.9,HfPdBr6,0.0,-0.988,0.642,-28.739,8,3,3.059,39.682,41.0,14.5,2.6574999999999998
3226,3409,61.9,61.9,61.9,61.9,HfPdCl6,0.05,-1.293,0.805,-32.379,8,3,2.866,35.801,27.5,7.0,2.8075
3227,3410,61.9,61.9,61.9,61.9,HfPdF6,0.075,-2.811,1.38,-43.338,8,3,2.238,28.241,21.5,7.0,3.4225
3228,3411,61.9,61.9,61.9,61.9,HfPdI6,0.061,-0.613,0.384,-25.103,8,3,3.294,46.071,54.5,14.5,2.4325
3229,3412,61.9,61.9,61.9,61.9,HfZnF6,0.025,-3.284,5.932,-44.48,8,3,2.227,26.674,19.5,7.25,3.35375
3230,3413,4.517500000000041,4.517500000000041,4.517500000000041,4.517500000000041,InMnBr6,0.0,-0.77,0.394,-28.144,8,3,3.243,39.692,35.5,15.25,2.6362499999999995
3231,3414,1.0500000000000682,1.0500000000000682,1.0500000000000682,1.0500000000000682,NbInBr6,0.006,-0.911,0.792,-29.883,8,3,2.954,46.141,37.5,15.0,2.6424999999999996
3232,3415,0.40249999999991815,0.35999999999989996,0.35999999999989996,0.37416666666657267,TlInCl6,0.0,-0.924,2.553,-23.363,8,3,2.974,38.651,29.0,8.5,2.8475
3233,3416,1.4950000000001182,1.4950000000001182,1.4950000000001182,1.4950000000001182,Mo2Br6NaO2,0.0,-1.181,0.0,-56.461,11,4,4.147,40.052,29.181818181818183,11.545454545454545,2.717272727272727
3234,3417,1.7925000000000182,1.7925000000000182,1.7925000000000182,1.7925000000000182,Mo2NaCl6O2,0.0,-1.421,0.0,-60.305,11,4,3.86,37.699,19.363636363636363,6.090909090909091,2.826363636363636
3235,3418,1.1925000000001091,1.1925000000001091,1.1925000000001091,1.1925000000001091,Mo2I6NaO2,0.019,-0.877,0.0,-52.481,11,4,4.482,43.856,39.0,11.545454545454545,2.5536363636363637
3236,3419,1.2374999999999545,1.2374999999999545,1.2374999999999545,1.2374999999999545,NbBr6Li,0.0,-1.079,1.552,-30.358,8,3,2.976,40.053,31.75,13.5,2.5425
3237,3420,4.197499999999991,4.019999999999982,4.019999999999982,4.0791666666666515,ScMnBr6,0.0,-1.224,0.521,-33.676,8,3,3.259,38.868,32.0,14.0,2.5837499999999998
3238,3421,5.05499999999995,5.05499999999995,5.05499999999995,5.05499999999995,ZrMnBr6,0.0,-1.209,1.643,-36.295,8,3,3.09,40.467,34.375,14.125,2.5799999999999996
3239,3422,1.6224999999999454,1.6224999999999454,1.6224999999999454,1.6224999999999454,W2Br6NaO2,0.0,-1.2,0.0,-57.235,11,4,4.19,40.084,35.0,11.545454545454545,2.7536363636363634
3240,3423,2.0449999999998454,2.0449999999998454,2.0449999999998454,2.0449999999998454,W2NaCl6O2,0.0,-1.462,0.0,-61.32,11,4,3.89,37.79,25.181818181818183,6.090909090909091,2.862727272727273
3241,3424,4.384999999999991,4.384999999999991,4.384999999999991,4.384999999999991,ZrI6Mn,0.0,-0.756,1.052,-32.04,8,3,3.347,46.835,47.875,14.125,2.355
3242,3425,1.8399999999999181,1.8399999999999181,1.8399999999999181,1.8399999999999181,OsMoCl6,0.047,-0.647,0.819,-38.277,8,3,3.235,30.147,27.5,7.0,2.915
3243,3426,1.4650000000001455,1.4650000000001455,1.4650000000001455,1.4650000000001455,PdNiF6,0.0,-1.554,0.424,-33.016,8,3,2.557,23.851,16.0,7.75,3.49875
3244,3427,1.4025000000000318,1.4025000000000318,1.4025000000000318,1.4025000000000318,ZrNiBr6,0.0,-1.047,1.301,-32.536,8,3,3.019,38.364,34.75,14.5,2.625
3245,3428,0.6800000000000637,0.6800000000000637,0.6800000000000637,0.6800000000000637,ZrNiCl6,0.003,-1.386,1.598,-36.451,8,3,2.819,34.29,21.25,7.0,2.7750000000000004
3246,3429,1.0550000000000637,1.0025000000000546,0.9874999999999545,1.0150000000000243,ZrNiF6,0.033,-3.039,1.9,-48.48,8,3,2.198,25.881,15.25,7.0,3.3899999999999997
3247,3430,1.4774999999999636,1.4774999999999636,1.4774999999999636,1.4774999999999636,ZrNiF6,0.162,-2.909,0.409,-47.446,8,3,2.926,27.702,15.25,7.0,3.3899999999999997
3248,3431,1.2150000000000318,1.2024999999999864,1.2074999999999818,1.2083333333333333,ZrI6Ni,0.0,-0.628,0.851,-28.548,8,3,3.25,44.964,48.25,14.5,2.4
3249,3432,61.9,61.9,61.9,61.9,ZrP2O6H2,0.0,-2.17,4.28,-79.395,11,4,6.104,26.154,10.909090909090908,4.7272727272727275,2.7954545454545454
3250,3433,1.3350000000000364,1.3350000000000364,1.3350000000000364,1.3350000000000364,OsRuCl6,0.03,-0.444,0.274,-34.92,8,3,3.131,29.824,27.75,7.25,2.92
3251,3434,1.3975000000000364,1.3975000000000364,1.3975000000000364,1.3975000000000364,ZrPdBr6,0.0,-0.988,0.628,-28.635,8,3,3.079,39.902,37.0,14.5,2.66125
3252,3435,1.7950000000000728,1.7950000000000728,1.7950000000000728,1.7950000000000728,ZrPdCl6,0.059,-1.284,0.79,-32.202,8,3,2.879,36.073,23.5,7.0,2.8112500000000002
3253,3436,61.9,61.9,61.9,61.9,Hf2Ti2Br7Cl,0.009,-1.21,0.529,-55.785,12,4,4.002,43.226,37.5,11.833333333333334,2.4633333333333334
3254,3437,1.4350000000001728,1.4350000000001728,1.4350000000001728,1.4350000000001728,ZrPdF6,0.085,-2.815,1.375,-43.263,8,3,2.234,28.342,17.5,7.0,3.42625
3255,3438,3.2574999999999363,3.2574999999999363,3.2574999999999363,3.2574999999999363,ZrPdI6,0.05,-0.625,0.366,-25.095,8,3,3.305,46.31,50.5,14.5,2.4362500000000002
3256,3439,2.027499999999918,2.027499999999918,2.027499999999918,2.027499999999918,Nb2K2Br12,0.0,-1.159,1.619,-60.657,16,3,10.347,58.206,33.75,13.5,2.5225
3257,3440,2.4375,2.4375,2.4375,2.4375,Nb2K2Cl12,0.0,-1.519,2.41,-68.818,16,3,9.662,53.887,20.25,6.0,2.6725000000000003