,ind,max_valorX,max_valorY,max_valorZ,media,formula,Ehull,HF,Gap,Energy,natoms,nspecies,thickness,uc_area,average_atomic_number,average_valence_number,average_electronegativity
1173,1229,0.12999999999999545,0.12999999999999545,0.12999999999999545,0.12999999999999545,Se2Na2H2,0.0,-0.593,3.022,-19.79,6,3,4.876,31.352,15.333333333333334,6.0,1.8933333333333333
1174,1230,0.13749999999998863,0.13749999999998863,0.13749999999998863,0.13749999999998863,Te2Na2H2,0.097,-0.382,2.703,-17.968,6,3,5.466,36.026,21.333333333333332,6.0,1.7433333333333334
1175,1231,61.9,61.9,61.9,61.9,Hf2I2N2,0.0,-1.459,1.585,-43.43,6,3,6.274,15.418,44.0,8.666666666666666,2.3333333333333335
1176,1232,61.9,61.9,61.9,61.9,Hf2I2N2,0.055,-1.404,0.545,-43.099,6,3,6.972,11.947,44.0,8.666666666666666,2.3333333333333335
1177,1233,61.9,61.9,61.9,61.9,Hf2I2S2,0.0,-1.281,0.0,-33.811,6,3,5.997,19.236,47.0,9.0,2.18
1178,1234,61.9,61.9,61.9,61.9,Hf2I2Se2,0.012,-1.103,0.0,-31.55,6,3,6.019,20.351,53.0,12.333333333333334,2.17
1179,1235,61.9,61.9,61.9,61.9,Hf2Te2I2,0.03,-0.796,0.0,-29.152,6,3,6.044,22.292,59.0,12.333333333333334,2.02
1180,1236,61.9,61.9,61.9,61.9,Hf2Te2O2,0.049,-2.125,0.635,-44.42,6,3,5.748,13.258,44.0,8.666666666666666,2.28
1181,1237,61.9,61.9,61.9,61.9,Hf2Si2S2,0.0,-1.099,0.0,-40.562,6,3,6.403,11.902,34.0,4.666666666666667,1.9266666666666667
1182,1238,61.9,61.9,61.9,61.9,Hf2Se2Si2,0.0,-0.995,0.0,-38.746,6,3,6.67,12.432,40.0,8.0,1.9166666666666667
1183,1239,61.9,61.9,61.9,61.9,Hf2Te2Si2,0.0,-0.716,0.0,-36.516,6,3,7.023,13.386,46.0,8.0,1.7666666666666668
1184,1241,4.707499999999982,4.707499999999982,4.707499999999982,4.707499999999982,In2I2S2,0.013,-0.549,0.969,-19.932,6,3,6.923,23.051,39.333333333333336,12.0,2.3400000000000003
1185,1242,1.1549999999999727,1.1549999999999727,1.1549999999999727,1.1549999999999727,In2I2S2,0.021,-0.541,1.539,-19.884,6,3,6.476,21.263,39.333333333333336,12.0,2.3400000000000003
1186,1243,0.6225000000000023,0.6225000000000023,0.6225000000000023,0.6225000000000023,In2I2S2,0.038,-0.524,1.162,-19.781,6,3,3.242,27.548,39.333333333333336,12.0,2.3400000000000003
1187,1244,7.625,7.625,7.625,7.625,In2I2Se2,0.012,-0.547,1.047,-18.729,6,3,6.67,25.147,45.333333333333336,15.333333333333334,2.33
1188,1245,0.23750000000001137,0.23500000000001364,0.27000000000003865,0.24750000000002123,Cs2Br2,0.063,-1.762,4.089,-11.885,4,2,3.652,26.389,45.0,9.0,1.875
1189,1246,0.29750000000001364,0.29750000000001364,0.29750000000001364,0.29750000000001364,Cs2Br2,0.138,-1.687,4.08,-11.584,4,2,1.231,49.37,45.0,9.0,1.875
1190,1247,0.45499999999992724,0.45499999999992724,0.45499999999992724,0.45499999999992724,Cu2Br2,0.024,-0.281,1.522,-11.644,4,2,3.633,13.537,32.0,14.0,2.4299999999999997
1191,1248,0.3424999999999727,0.4474999999999909,0.3424999999999727,0.3774999999999788,In2I2Se2,0.053,-0.506,1.264,-18.482,6,3,6.459,23.077,45.333333333333336,15.333333333333334,2.33
1192,1249,0.7475000000000591,0.7475000000000591,0.7475000000000591,0.7475000000000591,Cu2Br2,0.03,-0.274,1.496,-11.619,4,2,3.283,14.97,32.0,14.0,2.4299999999999997
1193,1250,8.83499999999998,8.83499999999998,8.83499999999998,8.83499999999998,In2Te2I2,0.005,-0.446,1.291,-17.566,6,3,6.414,28.439,51.333333333333336,15.333333333333334,2.18
1194,1251,9.912500000000023,9.912500000000023,9.912500000000023,9.912500000000023,In2Te2I2,0.032,-0.418,0.582,-17.401,6,3,3.993,34.11,51.333333333333336,15.333333333333334,2.18
1195,1252,3.875,3.875,3.875,3.875,Y2In2I2,0.046,-0.89,0.012,-23.207,6,3,8.061,17.567,47.0,11.0,1.8866666666666667
1196,1253,0.2300000000000182,0.2574999999999932,1.545000000000016,0.6775000000000091,Ga2Br2,0.035,-0.56,2.484,-11.217,4,2,3.028,19.787,33.0,15.0,2.385
1197,1254,1.3549999999999045,1.3549999999999045,1.3549999999999045,1.3549999999999045,Ir2I2S2,0.039,-0.265,0.215,-31.254,6,3,6.005,17.268,48.666666666666664,10.666666666666666,2.48
1198,1255,4.242500000000007,4.242500000000007,4.242500000000007,4.242500000000007,Ge2Br2,0.06,-0.396,0.169,-13.784,4,2,5.379,15.634,33.5,15.5,2.485
1199,1256,3.3999999999999773,3.3999999999999773,3.3999999999999773,3.3999999999999773,Ir2I2S2,0.078,-0.226,0.863,-31.022,6,3,3.135,24.317,48.666666666666664,10.666666666666666,2.48
1200,1257,0.7574999999999363,0.7574999999999363,0.7574999999999363,0.7574999999999363,Ir2I2Se2,0.042,-0.213,0.0,-29.755,6,3,6.014,18.941,54.666666666666664,14.0,2.47
1201,1258,61.9,61.9,61.9,61.9,Hf2Br2,0.002,-0.87,0.0,-21.662,4,2,6.32,10.084,53.5,10.5,2.13
1202,1259,0.7324999999999591,0.7324999999999591,0.7324999999999591,0.7324999999999591,Ir2Te2I2,0.004,-0.233,0.0,-29.313,6,3,6.14,20.948,60.666666666666664,14.0,2.3200000000000003
1203,1260,0.24750000000005912,0.24750000000005912,0.24750000000005912,0.24750000000005912,Hg2Br2,0.028,-0.437,1.522,-6.688,4,2,5.77,15.185,57.5,14.5,2.48
1204,1261,7.652500000000032,7.652500000000032,7.652500000000032,7.652500000000032,Ir2Te2I2,0.024,-0.212,0.956,-29.191,6,3,3.015,27.792,60.666666666666664,14.0,2.3200000000000003
1205,1262,0.7799999999999727,0.9049999999999727,0.7799999999999727,0.8216666666666393,I2Mn2O2,0.035,-1.01,0.0,-38.7,6,3,5.836,13.919,28.666666666666668,10.0,2.5500000000000003
1206,1263,1.4524999999999864,1.384999999999991,0.31749999999999545,1.0516666666666576,In2Br2,0.02,-0.675,2.371,-11.394,4,2,3.412,21.808,42.0,15.0,2.37
1207,1264,9.900000000000034,1.4975000000000023,4.275000000000034,5.22416666666669,In2Br2,0.05,-0.645,2.949,-11.276,4,2,2.684,28.324,42.0,15.0,2.37
1208,1265,1.0975000000000819,1.0975000000000819,1.0975000000000819,1.0975000000000819,I2Mn2S2,0.041,-0.452,0.0,-33.261,6,3,6.025,18.102,31.333333333333332,10.0,2.263333333333333
1209,1266,0.7599999999999909,0.7749999999999773,0.7599999999999909,0.7649999999999864,I2Mn2Se2,0.053,-0.391,0.0,-31.702,6,3,6.143,19.589,37.333333333333336,13.333333333333334,2.2533333333333334
1210,1267,0.2825000000000273,0.2825000000000273,0.2825000000000273,0.2825000000000273,K2Br2,0.144,-1.647,4.374,-12.196,4,2,1.461,39.679,27.0,9.0,1.89
1211,1268,0.2650000000000432,0.2725000000000364,0.20500000000004093,0.24750000000004016,Br2Li2,0.021,-1.545,5.339,-13.129,4,2,2.417,20.334,19.0,9.0,1.97
1212,1269,0.35000000000002274,0.7649999999999864,0.34750000000008185,0.4875000000000303,Nb2I2N2,0.046,-0.834,0.0,-45.316,6,3,5.651,15.277,33.666666666666664,9.0,2.433333333333333
1213,1270,0.3549999999999045,0.7974999999999,0.36999999999989086,0.5074999999998985,Ta2I2N2,0.074,-0.817,0.0,-44.199,6,3,5.665,15.246,44.333333333333336,9.0,2.4
1214,1271,0.4350000000000591,0.6150000000000091,0.25250000000005457,0.4341666666667076,I2Ti2N2,0.002,-1.18,0.062,-40.119,6,3,5.82,14.037,27.333333333333332,8.666666666666666,2.4133333333333336
1215,1272,1.2174999999999727,1.3700000000000045,1.3125,1.2999999999999925,I2Ti2N2,0.013,-1.169,0.044,-40.052,6,3,6.262,15.149,27.333333333333332,8.666666666666666,2.4133333333333336
1216,1273,1.2024999999999864,1.419999999999959,1.2699999999999818,1.2974999999999757,I2V2N2,0.137,-0.628,0.0,-40.477,6,3,5.532,13.443,27.666666666666668,9.0,2.4433333333333334
1217,1274,0.8199999999999932,0.8199999999999932,0.8199999999999932,0.8199999999999932,Pd2Br2,0.034,-0.247,0.0,-11.798,4,2,4.036,12.958,40.5,13.5,2.58
1218,1275,0.40250000000003183,0.2625000000000455,0.2700000000000955,0.31166666666672427,Zr2I2N2,0.033,-1.441,0.284,-43.111,6,3,6.977,12.077,33.333333333333336,8.666666666666666,2.3433333333333333
1219,1276,0.8050000000000068,0.8050000000000068,0.8050000000000068,0.8050000000000068,Pt2Br2,0.0,-0.228,1.177,-16.789,4,2,4.335,12.219,56.5,13.5,2.62
1220,1277,0.2925000000000182,0.2925000000000182,0.2925000000000182,0.2925000000000182,Rb2Br2,0.064,-1.723,4.112,-11.881,4,2,3.536,23.755,36.0,9.0,1.89
1221,1278,1.517500000000041,1.517500000000041,1.517500000000041,1.517500000000041,Rb2Br2,0.142,-1.646,4.18,-11.57,4,2,1.386,44.025,36.0,9.0,1.89
1222,1279,0.6900000000000546,0.7475000000000591,0.8274999999999864,0.7550000000000333,I2Ni2O2,0.056,-0.363,0.0,-29.877,6,3,5.655,12.855,29.666666666666668,11.0,2.67
1223,1280,1.2799999999999727,1.2799999999999727,1.2799999999999727,1.2799999999999727,I2Ni2S2,0.051,-0.207,0.0,-26.849,6,3,5.757,16.501,32.333333333333336,11.0,2.3833333333333333
1224,1281,0.82000000000005,0.82000000000005,0.82000000000005,0.82000000000005,I2Ni2Se2,0.0,-0.223,0.0,-25.754,6,3,5.787,18.053,38.333333333333336,14.333333333333334,2.3733333333333335
1225,1282,0.8274999999999864,0.4149999999999636,0.19249999999999545,0.4783333333333151,I2Ni2Se2,0.098,-0.125,0.0,-25.169,6,3,6.029,17.109,38.333333333333336,14.333333333333334,2.3733333333333335
1226,1283,0.8324999999999818,0.8324999999999818,0.8324999999999818,0.8324999999999818,Te2I2Ni2,0.0,-0.215,0.0,-25.153,6,3,5.812,20.183,44.333333333333336,14.333333333333334,2.223333333333333
1227,1284,0.7600000000001046,0.7850000000000819,0.7600000000001046,0.7683333333334303,Rh2I2O2,0.188,-0.369,0.0,-29.714,6,3,5.642,14.315,35.333333333333336,10.666666666666666,2.793333333333333
1228,1285,1.607500000000016,1.607500000000016,1.607500000000016,1.607500000000016,Sc2Br2,0.02,-1.171,0.0,-17.171,4,2,6.075,11.262,28.0,10.0,2.16
1229,1286,1.587500000000034,1.587500000000034,1.587500000000034,1.587500000000034,Sc2Br2,0.075,-1.116,0.0,-16.951,4,2,6.146,11.154,28.0,10.0,2.16
1230,1287,0.9225000000000136,1.0249999999999773,0.9225000000000136,0.9566666666666682,I2Ti2O2,0.062,-1.921,0.0,-38.112,6,3,5.522,14.631,27.666666666666668,9.0,2.546666666666667
1231,1288,0.36000000000001364,0.34000000000003183,0.34000000000003183,0.34666666666669244,Y2I2O2,0.061,-2.72,1.816,-38.908,6,3,7.152,13.355,33.333333333333336,8.666666666666666,2.44
1232,1289,0.32499999999998863,1.5974999999999682,0.39999999999997726,0.7741666666666447,Tl2Br2,0.063,-0.816,3.06,-11.429,4,2,3.303,27.478,58.0,15.0,2.5
1233,1290,1.6299999999999955,0.21000000000003638,0.21500000000003183,0.6850000000000213,Tl2Br2,0.067,-0.812,2.979,-11.414,4,2,2.366,31.363,58.0,15.0,2.5
1234,1291,0.6649999999999636,0.7999999999999545,0.6649999999999636,0.7099999999999606,Zr2I2O2,0.14,-2.073,0.0,-40.451,6,3,5.699,16.657,33.666666666666664,9.0,2.4766666666666666
1235,1293,1.1299999999999955,1.1299999999999955,1.1299999999999955,1.1299999999999955,Pd2I2S2,0.072,-0.203,0.0,-19.971,6,3,5.875,18.811,38.333333333333336,11.0,2.48
1236,1295,1.3975000000000364,1.3975000000000364,1.3975000000000364,1.3975000000000364,Pd2I2Se2,0.0,-0.273,0.0,-19.2,6,3,6.032,20.09,44.333333333333336,14.333333333333334,2.47
1237,1296,0.7174999999999727,0.7174999999999727,0.7174999999999727,0.7174999999999727,Pd2Te2I2,0.016,-0.328,0.0,-18.977,6,3,6.122,22.228,50.333333333333336,14.333333333333334,2.3200000000000003
1238,1297,0.15750000000002728,0.21500000000003183,0.15500000000002956,0.1758333333333629,Zr2Br2,0.0,-1.039,0.0,-22.13,4,2,6.12,10.821,37.5,10.5,2.145
1239,1298,2.0749999999999886,2.0749999999999886,2.0749999999999886,2.0749999999999886,Zr2Br2,0.068,-0.971,0.0,-21.86,4,2,6.354,10.328,37.5,10.5,2.145
1240,1299,1.4325000000000045,1.4325000000000045,1.4325000000000045,1.4325000000000045,Pt2I2Se2,0.014,-0.277,0.0,-24.29,6,3,5.81,20.702,55.0,14.333333333333334,2.4966666666666666
1241,1300,0.6024999999999636,0.6024999999999636,0.6024999999999636,0.6024999999999636,Pt2Te2I2,0.0,-0.335,0.0,-24.086,6,3,5.879,22.677,61.0,14.333333333333334,2.3466666666666667
1242,1301,1.4175000000000182,1.4175000000000182,1.4175000000000182,1.4175000000000182,Rh2I2S2,0.038,-0.398,0.0,-27.794,6,3,6.011,17.317,38.0,10.666666666666666,2.5066666666666664
1243,1302,3.2199999999999136,3.2199999999999136,3.2199999999999136,3.2199999999999136,Rh2I2S2,0.049,-0.387,0.771,-27.729,6,3,3.216,24.052,38.0,10.666666666666666,2.5066666666666664
1244,1303,61.9,61.9,61.9,61.9,C2H2,0.004,-0.134,3.46,-25.623,4,2,2.679,5.583,3.5,2.5,2.375
1245,1304,5.047500000000014,5.047500000000014,5.047500000000014,5.047500000000014,Ca2Cl2,0.142,-1.681,0.0,-14.319,4,2,5.788,13.256,18.5,4.5,2.08
1246,1305,4.412499999999909,4.412499999999909,4.412499999999909,4.412499999999909,Rh2I2Se2,0.0,-0.401,0.887,-26.625,6,3,3.16,25.446,44.0,14.0,2.4966666666666666
1247,1306,0.9099999999999682,0.9099999999999682,0.9099999999999682,0.9099999999999682,Rh2I2Se2,0.013,-0.388,0.0,-26.546,6,3,6.077,18.842,44.0,14.0,2.4966666666666666
1248,1307,0.8600000000000136,0.8600000000000136,0.8600000000000136,0.8600000000000136,Rh2Te2I2,0.0,-0.415,0.0,-26.152,6,3,6.188,20.839,50.0,14.0,2.3466666666666667
1249,1308,6.455000000000041,6.455000000000041,6.455000000000041,6.455000000000041,Rh2Te2I2,0.002,-0.413,0.898,-26.137,6,3,3.141,27.49,50.0,14.0,2.3466666666666667
1250,1309,0.5425000000000182,0.57000000000005,0.5425000000000182,0.5516666666666955,Ru2I2S2,0.14,-0.177,0.0,-31.101,6,3,6.189,16.676,37.666666666666664,10.333333333333334,2.48
1251,1311,0.39999999999997726,0.34749999999996817,0.3149999999999409,0.35416666666662877,Ru2I2Se2,0.144,-0.098,0.0,-29.438,6,3,6.233,18.216,43.666666666666664,13.666666666666666,2.47
1252,1312,2.232499999999959,2.232499999999959,2.232499999999959,2.232499999999959,I2Sc2S2,0.0,-1.679,1.662,-30.508,6,3,6.286,20.004,30.0,8.666666666666666,2.2
1253,1314,1.1949999999999932,1.1949999999999932,1.1949999999999932,1.1949999999999932,Y2I2S2,0.0,-1.845,2.543,-31.567,6,3,7.529,17.43,36.0,8.666666666666666,2.1533333333333333
1254,1315,0.9424999999999955,0.9524999999999864,0.9424999999999955,0.9458333333333258,Zr2I2S2,0.0,-1.385,0.0,-34.226,6,3,6.048,19.55,36.333333333333336,9.0,2.19
1255,1318,0.31999999999993634,0.45499999999992724,0.31999999999993634,0.3649999999999333,I2Sc2Se2,0.0,-1.543,1.393,-28.501,6,3,6.315,21.421,36.0,12.0,2.19
1256,1319,0.31749999999999545,0.41000000000008185,0.31749999999999545,0.3483333333333576,Te2I2Sc2,0.0,-1.261,0.632,-26.254,6,3,6.395,23.951,42.0,12.0,2.04
1257,1321,0.33750000000009095,0.2675000000000409,0.2675000000000409,0.29083333333339095,Te2I2Sc2,0.029,-1.232,1.122,-26.08,6,3,3.44,29.656,42.0,12.0,2.04
1258,1322,4.690000000000055,4.690000000000055,4.690000000000055,4.690000000000055,Sn2I2Se2,0.089,-0.354,0.0,-20.158,6,3,6.392,23.362,45.666666666666664,15.666666666666666,2.39
1259,1323,0.9600000000000364,0.9900000000000091,0.9600000000000364,0.9700000000000273,I2Ti2Se2,0.023,-1.001,0.0,-29.309,6,3,5.867,19.022,36.333333333333336,12.333333333333334,2.25
1260,1324,5.972500000000025,5.972500000000025,5.972500000000025,5.972500000000025,Cs2Cl2,0.141,-1.853,4.46,-12.647,4,2,1.033,45.42,36.0,4.0,1.975
1261,1325,0.912499999999909,0.9074999999999136,0.9074999999999136,0.9091666666665787,Cu2Cl2,0.0,-0.451,2.612,-12.728,4,2,3.358,15.95,23.0,9.0,2.5300000000000002
1262,1326,0.0,0.0,0.0,0.0,Y2I2Se2,0.0,-1.686,2.724,-29.419,6,3,3.339,31.251,42.0,12.0,2.143333333333333
1263,1327,0.7525000000000546,0.8000000000000682,0.7525000000000546,0.7683333333333925,Zr2I2Se2,0.0,-1.222,0.0,-32.061,6,3,6.082,20.666,42.333333333333336,12.333333333333334,2.18
1264,1328,2.3100000000000023,2.3100000000000023,2.3100000000000023,2.3100000000000023,Ge2Cl2,0.023,-0.571,0.119,-14.884,4,2,5.052,15.514,24.5,10.5,2.585
1265,1329,61.9,61.9,61.9,61.9,Hf2Cl2,0.0,-1.182,0.0,-23.309,4,2,6.072,9.473,44.5,5.5,2.23
1266,1330,0.7375000000000682,0.7800000000000864,0.7375000000000682,0.751666666666741,Zr2Te2I2,0.012,-0.932,0.0,-29.763,6,3,6.13,22.566,48.333333333333336,12.333333333333334,2.03
1267,1331,0.49249999999995,0.49249999999995,0.49249999999995,0.49249999999995,Hg2Cl2,0.076,-0.525,1.66,-7.442,4,2,5.581,13.976,48.5,9.5,2.58
1268,1332,0.8824999999999932,0.8824999999999932,0.8824999999999932,0.8824999999999932,In2Si2S2,0.021,-0.349,1.517,-26.576,6,3,8.348,13.179,26.333333333333332,7.666666666666667,2.0866666666666664
1269,1333,1.8149999999999977,1.8149999999999977,1.8149999999999977,1.8149999999999977,In2Se2Si2,0.036,-0.322,1.509,-25.224,6,3,8.597,13.761,32.333333333333336,11.0,2.0766666666666667
1270,1334,2.2375000000000114,2.2375000000000114,2.2375000000000114,2.2375000000000114,In2Sn2Se2,0.06,-0.298,0.134,-22.391,6,3,9.047,16.347,44.333333333333336,14.333333333333334,2.0966666666666667
1271,1335,7.57000000000005,1.2625000000000455,1.2625000000000455,3.365000000000047,In2Cl2,0.036,-0.806,3.174,-12.321,4,2,2.795,25.214,33.0,10.0,2.47
1272,1336,1.8625000000000114,1.8625000000000114,1.8625000000000114,1.8625000000000114,In2Te2Si2,0.095,-0.138,0.418,-23.565,6,3,8.904,14.907,38.333333333333336,11.0,1.9266666666666665
1273,1337,2.3525000000000205,2.3525000000000205,2.3525000000000205,2.3525000000000205,In2Sn2Te2,0.01,-0.223,0.011,-21.389,6,3,9.298,17.665,50.333333333333336,14.333333333333334,1.9466666666666665
1274,1338,0.9975000000000023,0.9049999999999727,0.9049999999999727,0.9358333333333159,Tl2In2Te2,0.063,-0.184,0.955,-18.036,6,3,3.983,33.495,60.666666666666664,14.0,1.9733333333333334
1275,1339,0.8752499999999941,0.0619999999999834,0.1797499999999843,0.3723333333333206,K2S2Li2,0.054,-1.195,1.574,-21.544,6,3,4.898,17.884,12.666666666666666,2.6666666666666665,1.46
1276,1340,0.017499999999984084,0.017499999999984084,0.09499999999997044,0.04333333333331287,K2Mn2P2,0.028,-0.391,0.0,-34.95,6,3,6.196,14.33,19.666666666666668,4.333333333333333,1.5200000000000002
1277,1341,0.33499999999997954,0.33499999999997954,0.33499999999997954,0.33499999999997954,K2Cl2,0.067,-1.917,4.91,-13.675,4,2,3.23,19.518,18.0,4.0,1.99
1278,1342,4.670000000000016,4.670000000000016,4.670000000000016,4.670000000000016,K2Cl2,0.147,-1.836,4.882,-13.355,4,2,1.124,36.401,18.0,4.0,1.99
1279,1343,0.8924999999999841,0.8924999999999841,0.8924999999999841,0.8924999999999841,Cl2Li2,0.03,-1.806,5.896,-14.574,4,2,2.763,12.436,10.0,4.0,2.0700000000000003
1280,1344,0.01749999999992724,0.06999999999993634,0.21499999999991815,0.10083333333326057,K2Ni2P2,0.03,-0.404,0.0,-30.087,6,3,5.604,15.564,20.666666666666668,5.333333333333333,1.64
1281,1345,0.03499999999996817,0.03499999999996817,0.03499999999996817,0.03499999999996817,Rb2K2O2,0.028,-0.954,0.461,-20.233,6,3,2.686,30.493,21.333333333333332,2.6666666666666665,1.6933333333333334
1282,1346,0.0049999999999954525,0.0049999999999954525,0.04750000000001364,0.01916666666666818,Rb2K2O2,0.07,-0.913,0.495,-19.983,6,3,2.659,29.116,21.333333333333332,2.6666666666666665,1.6933333333333334
1283,1347,5.150000000000091,5.150000000000091,5.150000000000091,5.150000000000091,Ir2I2Se2,0.045,-0.211,1.01,-29.738,6,3,3.048,25.764,54.666666666666664,14.0,2.47
1284,1348,0.057499999999947704,0.6699999999999591,0.9899999999999523,0.572499999999953,Tl2K2O2,0.052,-0.942,1.528,-23.332,6,3,2.963,23.558,36.0,6.666666666666667,2.1
1285,1349,0.24750000000000227,0.3875000000000455,0.7900000000000205,0.47500000000002274,Mn2P2Li2,0.094,-0.513,0.0,-37.022,6,3,4.288,12.953,14.333333333333334,4.333333333333333,1.5733333333333335
1286,1350,0.7599999999999909,1.2350000000000136,3.0575000000000045,1.6841666666666697,Sb2Ni2Li2,0.103,-0.312,0.0,-28.959,6,3,3.296,17.412,27.333333333333332,8.666666666666666,1.6466666666666665
1287,1351,10.123500000000007,10.123500000000007,10.123500000000007,10.123500000000007,Rb2S2Li2,0.036,-1.168,1.265,-20.76,6,3,5.126,18.767,18.666666666666668,2.6666666666666665,1.46
1288,1352,0.2899999999999636,0.31749999999999545,0.43250000000000455,0.3466666666666545,Rb2Se2Li2,0.042,-1.151,1.268,-19.47,6,3,5.26,20.545,24.666666666666668,6.0,1.45
1289,1353,0.2999999999999545,0.28249999999997044,0.28249999999997044,0.28833333333329847,Tl2S2Li2,0.053,-0.802,1.782,-21.746,6,3,6.798,14.313,33.333333333333336,6.666666666666667,1.8666666666666665
1290,1354,0.1500000000000341,0.1500000000000341,0.1500000000000341,0.1500000000000341,Tl2Te2Li2,0.022,-0.625,1.041,-18.935,6,3,6.081,20.066,45.333333333333336,10.0,1.706666666666667
1291,1355,1.1649999999999636,1.1649999999999636,1.1649999999999636,1.1649999999999636,Pd2Cl2,0.04,-0.346,0.159,-12.596,4,2,4.06,11.654,31.5,8.5,2.68
1292,1356,0.9175000000000182,0.9175000000000182,0.9175000000000182,0.9175000000000182,Pt2Cl2,0.0,-0.338,1.308,-17.631,4,2,4.183,11.424,47.5,8.5,2.7199999999999998
1293,1357,0.03750000000002274,0.10750000000001592,0.3824999999999932,0.17583333333334394,Mn2Na2P2,0.065,-0.387,0.0,-35.097,6,3,5.243,13.624,17.0,4.333333333333333,1.5566666666666666