,ind,max_valorX,max_valorY,max_valorZ,media,formula,Ehull,HF,Gap,Energy,natoms,nspecies,thickness,uc_area,average_atomic_number,average_valence_number,average_electronegativity
2511,2683,1.9075000000000273,1.9075000000000273,1.9075000000000273,1.9075000000000273,Ti2Cl2B,0.0,-1.267,0.0,-29.989,5,3,5.654,9.387,16.6,5.0,2.2880000000000003
2512,2684,7.507499999999993,7.507499999999993,15.547499999999957,10.18749999999998,Y2Cl2B,0.067,-1.371,0.0,-26.515,5,3,6.468,12.235,23.4,4.6,2.16
2513,2685,1.829999999999984,1.829999999999984,1.829999999999984,1.829999999999984,Zr2Cl2B,0.0,-1.434,0.0,-32.253,5,3,6.042,10.668,23.8,5.0,2.2039999999999997
2514,2686,1.0175000000001546,0.9100000000000819,0.9225000000001273,0.9500000000001213,Co2As2Se6,0.033,-0.212,0.166,-48.798,10,3,2.811,34.878,32.4,14.4,2.342
2515,2687,0.9900000000000091,0.8799999999998818,0.9099999999998545,0.9266666666665818,Te6Co2As2,0.068,-0.105,0.015,-46.058,10,3,3.03,40.121,43.2,14.4,2.072
2516,2688,0.6425000000001546,0.20250000000010004,0.5775000000001,0.4741666666667849,Cr2As2O6,0.006,-1.582,1.295,-74.71,10,3,3.832,21.438,16.2,7.8,2.832
2517,2689,0.7199999999999136,0.7624999999999318,0.9349999999999454,0.8058333333332636,Cr2As2S6,0.074,-0.387,0.798,-56.483,10,3,3.264,32.809,21.0,7.8,2.316
2518,2690,0.45249999999998636,0.4275000000000091,0.9974999999999454,0.6258333333333136,Cr2As2Se6,0.025,-0.315,0.338,-52.193,10,3,3.351,36.376,31.8,13.8,2.2979999999999996
2519,2691,61.9,61.9,61.9,61.9,Hf2BF2,0.072,-2.155,0.0,-35.663,5,3,5.165,9.654,33.4,5.0,2.5200000000000005
2520,2692,1.1025000000000773,0.9025000000000318,0.8799999999999955,0.9616666666667015,Te6Cr2As2,0.035,-0.101,0.0,-48.381,10,3,3.401,41.467,42.6,13.8,2.028
2521,2693,2.357499999999959,2.357499999999959,2.357499999999959,2.357499999999959,Ti2BF2,0.063,-2.112,0.0,-33.819,5,3,4.926,8.297,13.4,5.0,2.616
2522,2694,1.5550000000000068,3.6049999999999613,7.177500000000009,4.112499999999993,Y2BF2,0.141,-2.251,0.0,-30.514,5,3,5.445,11.09,20.2,4.6,2.4880000000000004
2523,2695,2.6549999999999727,2.6549999999999727,2.6549999999999727,2.6549999999999727,Zr2BF2,0.016,-2.227,0.0,-35.82,5,3,5.184,9.814,20.6,5.0,2.532
2524,2696,1.1125000000000114,1.1125000000000114,1.1125000000000114,1.1125000000000114,Mo2Se2B,0.188,-0.455,0.0,-38.349,5,3,5.825,9.354,31.4,9.4,2.2920000000000003
2525,2697,0.464999999999975,0.6549999999999727,1.0849999999999795,0.7349999999999758,Nb2S2B,0.121,-0.932,0.0,-40.174,5,3,5.727,9.559,23.8,5.0,2.0799999999999996
2526,2698,0.8375000000000341,0.9700000000000273,1.0825000000000387,0.9633333333333667,Nb2Se2B,0.055,-0.819,0.0,-38.417,5,3,5.991,9.874,31.0,9.0,2.068
2527,2699,0.5849999999999795,0.5249999999999773,0.7099999999999795,0.6066666666666455,Nb2Te2B,0.059,-0.547,0.0,-36.5,5,3,6.401,10.352,38.2,9.0,1.8880000000000003
2528,2700,0.9424999999999955,0.20000000000004547,0.3849999999999909,0.5091666666666773,Ir2As2S6,0.04,-0.294,0.251,-55.282,10,3,2.726,34.252,31.6,8.4,2.4240000000000004
2529,2701,0.37249999999994543,0.5924999999999727,0.4099999999998545,0.45833333333325754,Ir2As2Se6,0.005,-0.276,0.28,-51.538,10,3,2.905,37.652,42.4,14.4,2.406
2530,2702,0.39749999999997954,0.7099999999999795,1.0649999999999977,0.7241666666666523,Ta2S2B,0.037,-0.976,0.0,-39.372,5,3,5.703,9.589,36.6,5.0,2.04
2531,2703,0.49250000000006366,0.5850000000000364,0.5599999999999454,0.5458333333333485,Ir2Te6As2,0.045,-0.207,0.336,-49.173,10,3,3.125,42.778,53.2,14.4,2.136
2532,2704,0.18000000000006366,0.24500000000000455,0.22250000000008185,0.21583333333338336,As2Mg2S6,0.074,-0.576,2.029,-42.786,10,3,3.366,33.806,18.6,7.0,2.246
2533,2705,0.28750000000002274,0.44499999999993634,0.3424999999999727,0.3583333333333106,As2Se6Mg2,0.052,-0.512,1.312,-38.576,10,3,3.555,37.298,29.4,13.0,2.228
2534,2706,0.8900000000000432,1.0550000000000068,1.0699999999999932,1.0050000000000143,Ta2Se2B,0.005,-0.836,0.0,-37.481,5,3,5.951,9.932,43.8,9.0,2.028
2535,2707,0.8350000000000364,0.7975000000000136,0.9975000000000023,0.8766666666666841,V2Se2B,0.168,-0.59,0.0,-33.667,5,3,5.654,8.794,23.8,9.0,2.0799999999999996
2536,2708,0.9775000000000205,0.8525000000000205,0.9900000000000091,0.9400000000000167,Ta2Te2B,0.047,-0.523,0.0,-35.362,5,3,6.348,10.445,51.0,9.0,1.848
2537,2709,0.03750000000002274,0.03750000000002274,0.03750000000002274,0.03750000000002274,BaO2H2,0.028,-1.814,3.659,-27.796,5,3,4.416,15.515,14.8,3.2,2.434
2538,2710,0.21749999999997272,0.21749999999997272,0.21749999999997272,0.21749999999997272,BaS2H2,0.015,-0.966,3.774,-21.465,5,3,5.463,21.887,18.0,3.2,2.09
2539,2711,0.12999999999999545,0.12999999999999545,0.12999999999999545,0.12999999999999545,BaSe2H2,0.03,-0.82,3.22,-19.543,5,3,5.762,23.83,25.2,7.2,2.0780000000000003
2540,2712,0.6275000000000546,0.6475000000000364,0.7950000000000728,0.6900000000000546,BiNi2Se2,0.096,-0.188,0.0,-27.074,5,3,4.854,13.057,41.4,13.4,2.1879999999999997
2541,2713,0.5,0.5,0.5750000000000455,0.5250000000000151,BiTe2Ni2,0.0,-0.176,0.0,-26.46,5,3,5.135,13.919,48.6,13.4,2.008
2542,2714,1.4674999999999727,1.4674999999999727,1.4674999999999727,1.4674999999999727,BiPd2Te2,0.049,-0.319,0.0,-20.318,5,3,5.153,15.846,55.8,13.4,2.124
2543,2715,0.285000000000025,0.285000000000025,0.285000000000025,0.285000000000025,Sc2Br2C,0.0,-1.327,0.663,-28.346,5,3,6.104,10.724,23.6,8.8,2.2380000000000004
2544,2716,61.9,61.9,61.9,61.9,Hf2Cl2C,0.0,-1.466,0.0,-35.133,5,3,5.918,10.074,36.8,5.2,2.2939999999999996
2545,2717,0.5199999999999818,0.06500000000005457,0.4500000000000455,0.3450000000000273,Rh2As2O6,0.089,-0.904,0.857,-63.402,10,3,3.841,22.346,20.4,8.4,2.9560000000000004
2546,2718,1.2375000000000114,1.2375000000000114,1.2375000000000114,1.2375000000000114,Nb2Cl2C,0.0,-1.051,0.0,-38.698,5,3,5.701,9.655,24.4,5.6,2.414
2547,2719,0.46750000000002956,0.46750000000002956,0.46750000000002956,0.46750000000002956,Sc2Cl2C,0.0,-1.585,0.883,-30.033,5,3,5.8,10.267,16.4,4.8,2.318
2548,2720,1.5574999999999477,1.5574999999999477,1.5574999999999477,1.5574999999999477,Ta2Cl2C,0.032,-0.947,0.0,-37.156,5,3,5.678,9.781,37.2,5.6,2.374
2549,2721,0.7624999999999886,0.7624999999999886,0.7899999999999636,0.771666666666647,Ti2Cl2C,0.0,-1.397,0.0,-33.154,5,3,5.554,9.047,16.8,5.2,2.3899999999999997
2550,2722,1.410000000000025,1.410000000000025,1.410000000000025,1.410000000000025,V2Cl2C,0.023,-0.895,0.0,-34.311,5,3,5.233,8.859,17.2,5.6,2.4259999999999997
2551,2723,0.3424999999999727,0.4299999999998363,0.5924999999999727,0.45499999999992724,Rh2As2Se6,0.028,-0.321,0.127,-47.726,10,3,2.948,37.094,36.0,14.4,2.4219999999999997
2552,2724,7.5,9.414999999999964,16.434999999999945,11.116666666666637,Y2Cl2C,0.0,-1.587,0.961,-30.108,5,3,6.175,11.93,23.6,4.8,2.2619999999999996
2553,2725,2.0749999999999886,2.0749999999999886,2.0749999999999886,2.0749999999999886,Zr2Cl2C,0.0,-1.548,0.0,-35.337,5,3,5.971,10.218,24.0,5.2,2.306
2554,2726,0.4875000000001819,0.5924999999999727,0.5650000000000546,0.5483333333334031,Rh2Te6As2,0.053,-0.264,0.262,-45.493,10,3,3.155,42.281,46.8,14.4,2.152
2555,2727,1.2324999999998454,0.4874999999999545,0.8899999999998727,0.8699999999998909,Sb2As2O6,0.0,-1.301,3.974,-61.894,10,3,4.161,26.267,21.6,9.6,2.91
2556,2728,1.4649999999999181,1.3899999999999864,1.3899999999999864,1.4149999999999636,Sc2As2S6,0.091,-0.957,1.423,-52.68,10,3,3.432,36.344,20.4,7.2,2.2560000000000002
2557,2729,61.9,61.9,61.9,61.9,Hf2CF2,0.04,-2.26,0.0,-38.707,5,3,5.113,9.247,33.6,5.2,2.622
2558,2730,1.0750000000000455,0.8799999999999955,1.3700000000000045,1.1083333333333485,Sc2As2Se6,0.0,-0.851,0.839,-48.057,10,3,3.582,39.604,31.2,13.2,2.238
2559,2731,1.1100000000000136,1.115000000000009,2.017500000000041,1.4141666666666879,Te6Sc2As2,0.077,-0.549,0.1,-43.362,10,3,3.71,45.625,42.0,13.2,1.9680000000000004
2560,2732,2.3125,2.3125,2.3125,2.3125,Sc2CF2,0.0,-2.541,1.02,-34.419,5,3,4.826,9.242,13.2,4.8,2.646
2561,2733,0.44500000000005,0.41000000000008185,0.41000000000008185,0.4216666666667379,As2Si2S6,0.052,-0.408,2.181,-48.671,10,3,3.504,40.722,19.0,7.4,2.364
2562,2734,2.0249999999999773,2.0249999999999773,2.0249999999999773,2.0249999999999773,Ti2CF2,0.0,-2.274,0.0,-37.143,5,3,4.801,8.047,13.6,5.2,2.718
2563,2735,2.07000000000005,2.07000000000005,2.07000000000005,2.07000000000005,V2CF2,0.079,-1.724,0.0,-38.059,5,3,4.624,7.723,14.0,5.6,2.754
2564,2736,0.9150000000000773,0.8500000000000227,0.8425000000000864,0.8691666666667288,As2Se6Si2,0.033,-0.276,1.79,-43.78,10,3,3.703,44.816,29.8,13.4,2.346
2565,2737,1.5677500000000464,4.268500000000017,12.866750000000025,6.234333333333363,Y2CF2,0.0,-2.497,1.117,-34.261,5,3,5.09,10.968,20.4,4.8,2.59
2566,2738,2.607499999999959,2.607499999999959,2.607499999999959,2.607499999999959,Zr2CF2,0.0,-2.363,0.0,-39.012,5,3,5.13,9.356,20.8,5.2,2.634
2567,2739,61.9,61.9,61.9,61.9,Hf2CH2,0.082,-0.588,0.0,-33.82,5,3,4.54,9.199,30.4,2.8,1.9100000000000001
2568,2740,2.027500000000032,2.0475000000000136,2.027500000000032,2.0341666666666924,Sn2Te6As2,0.081,-0.039,0.455,-37.058,10,3,3.756,48.337,47.8,15.4,2.088
2569,2741,0.9284999999999854,0.9284999999999854,1.6442499999999995,1.1670833333333235,Sc2CH2,0.071,-0.546,1.01,-27.917,5,3,4.553,9.348,10.0,2.4,1.934
2570,2742,1.3212500000000205,1.3212500000000205,1.5032500000000084,1.3819166666666831,Ti2CH2,0.053,-0.586,0.0,-32.176,5,3,4.286,7.963,10.4,2.8,2.0060000000000002
2571,2743,1.4257499999999936,1.4257499999999936,1.6832499999999868,1.5115833333333246,Zr2CH2,0.095,-0.627,0.0,-33.807,5,3,4.56,9.435,17.6,2.8,1.922
2572,2744,61.9,61.9,61.9,61.9,Hf2CO2,0.168,-2.307,0.938,-46.017,5,3,4.635,9.3,33.2,4.8,2.406
2573,2745,61.9,61.9,61.9,61.9,Hf2Se2C,0.098,-1.076,0.0,-36.578,5,3,6.1,10.406,43.6,8.8,2.05
2574,2746,61.9,61.9,61.9,61.9,Hf2Te2C,0.092,-0.771,0.0,-34.497,5,3,6.677,10.562,50.8,8.8,1.8700000000000003
2575,2747,0.4049999999999727,0.35499999999996135,0.32749999999998636,0.36249999999997345,I2Sc2C,0.0,-0.931,0.0,-26.149,5,3,6.465,11.599,30.8,8.8,2.118
2576,2748,2.42999999999995,2.42999999999995,2.42999999999995,2.42999999999995,Zr2I2C,0.0,-0.933,0.0,-31.646,5,3,6.565,11.394,38.4,9.2,2.1060000000000003
2577,2749,0.86749999999995,0.86749999999995,0.86749999999995,0.86749999999995,Tl2As2O6,0.033,-1.031,2.854,-55.379,10,3,6.178,21.249,27.6,9.2,2.9080000000000004
2578,2750,1.1574999999999704,1.1574999999999704,1.1574999999999704,1.1574999999999704,Mo2Se2C,0.153,-0.333,0.0,-40.254,5,3,5.597,9.545,31.6,9.6,2.3939999999999997
2579,2751,2.992500000000007,2.992500000000007,2.992500000000007,2.992500000000007,Nb2CO2,0.11,-1.728,0.0,-48.758,5,3,4.636,8.469,20.8,5.2,2.526
2580,2752,0.20499999999998408,0.4574999999999818,0.8249999999999886,0.4958333333333182,Nb2S2C,0.003,-0.946,0.0,-42.76,5,3,5.658,9.293,24.0,5.2,2.182
2581,2753,0.6700000000000159,0.7825000000000273,0.9150000000000205,0.7891666666666879,Nb2Se2C,0.0,-0.837,0.0,-41.021,5,3,5.943,9.552,31.2,9.2,2.1700000000000004
2582,2754,0.7549999999999955,0.5824999999999818,0.9049999999999727,0.7474999999999833,Nb2Te2C,0.0,-0.558,0.0,-39.07,5,3,6.327,10.06,38.4,9.2,1.9899999999999998
2583,2755,2.910000000000025,2.910000000000025,2.910000000000025,2.910000000000025,Ta2CO2,0.113,-1.766,0.0,-47.93,5,3,4.658,8.501,33.6,5.2,2.4859999999999998
2584,2756,2.3725000000000023,2.3725000000000023,2.3725000000000023,2.3725000000000023,Ti2CO2,0.112,-2.061,0.325,-43.153,5,3,4.44,7.962,13.2,4.8,2.502
2585,2757,2.787499999999966,2.787499999999966,2.787499999999966,2.787499999999966,V2CO2,0.185,-1.437,0.0,-43.701,5,3,4.431,7.316,13.6,5.2,2.538
2586,2758,2.642499999999984,2.642499999999984,2.642499999999984,2.642499999999984,Zr2CO2,0.172,-2.288,0.95,-45.712,5,3,4.624,9.433,20.4,4.8,2.418
2587,2759,0.20499999999998408,0.5,0.8524999999999636,0.5191666666666492,Ta2S2C,0.0,-0.975,0.0,-41.881,5,3,5.628,9.352,36.8,5.2,2.1420000000000003
2588,2760,0.597500000000025,0.597500000000025,1.0049999999999955,0.7333333333333485,Ti2S2C,0.145,-1.06,0.0,-36.055,5,3,5.526,8.868,16.4,4.8,2.158
2589,2761,0.32499999999998863,0.3224999999999909,0.6850000000000023,0.4441666666666606,V2S2C,0.073,-0.739,0.0,-38.12,5,3,5.353,8.139,16.8,5.2,2.194
2590,2762,9.085000000000036,8.987500000000068,8.987500000000068,9.020000000000058,Au2Cd2I6,0.05,-0.367,1.421,-20.655,10,3,3.574,50.529,57.2,14.8,2.442
2591,2763,0.2950000000000159,0.30750000000000455,0.3025000000000091,0.3016666666666765,Zr2S2C,0.171,-1.219,0.0,-38.278,5,3,5.79,10.436,23.6,4.8,2.0740000000000003
2592,2764,0.847500000000025,0.9250000000000114,0.9825000000000159,0.9183333333333508,Ta2Se2C,0.0,-0.832,0.0,-39.977,5,3,5.902,9.62,44.0,9.2,2.13
2593,2765,1.0849999999999795,1.0849999999999795,1.1924999999999955,1.1208333333333182,Ti2Se2C,0.077,-0.94,0.0,-34.266,5,3,5.847,9.093,23.6,8.8,2.146
2594,2766,0.7775000000000318,0.7574999999999932,0.9424999999999955,0.8258333333333402,V2Se2C,0.0,-0.639,0.0,-36.426,5,3,5.599,8.493,24.0,9.2,2.182
2595,2767,0.4874999999999545,0.37249999999994543,0.2725000000000364,0.3774999999999788,Au2I6Ni2,0.045,-0.072,0.098,-30.342,10,3,3.213,45.086,53.2,14.4,2.4859999999999998
2596,2768,0.3324999999999818,0.2400000000000091,0.23500000000001364,0.26916666666666816,Zr2Se2C,0.089,-1.081,0.0,-36.398,5,3,6.159,10.544,30.8,8.8,2.062
2597,2769,0.9025000000000318,0.8375000000000341,1.072499999999991,0.937500000000019,Ta2Te2C,0.0,-0.507,0.0,-37.799,5,3,6.273,10.159,51.2,9.2,1.95
2598,2770,1.0649999999999977,0.9050000000000296,0.6850000000000023,0.8850000000000099,Te2Ti2C,0.067,-0.678,0.0,-32.396,5,3,6.383,9.494,30.8,8.8,1.966
2599,2771,0.875,0.6825000000000045,0.9000000000000341,0.8191666666666796,Te2V2C,0.035,-0.35,0.0,-34.428,5,3,5.963,9.176,31.2,9.2,2.002
2600,2772,1.990000000000009,1.990000000000009,1.990000000000009,1.990000000000009,Au2Pb2I6,0.041,-0.414,1.256,-26.79,10,3,3.882,55.408,64.0,15.2,2.5700000000000003
2601,2773,0.9774999999999636,0.9825000000000728,0.9774999999999636,0.9791666666666666,Au2Sb2S6,0.092,-0.082,1.226,-40.362,10,3,3.046,50.222,35.6,8.8,2.466
2602,2774,0.13249999999999318,0.13249999999999318,0.13249999999999318,0.13249999999999318,CaSe2H2,0.043,-0.771,3.177,-19.479,5,3,5.649,18.638,18.0,7.2,2.1
2603,2775,3.590000000000032,3.9775000000000773,3.590000000000032,3.719166666666714,Bi2P2S6,0.084,-0.213,0.655,-46.672,10,3,3.236,42.086,29.2,7.6,2.3899999999999997
2604,2776,1.204999999999984,0.9599999999999795,0.9599999999999795,1.0416666666666476,CdS2H2,0.001,-0.374,3.156,-17.601,5,3,3.991,17.129,16.4,5.2,2.25
2605,2777,0.7925000000000182,0.18000000000006366,0.28500000000008185,0.41916666666672125,Bi2Sb2O6,0.0,-1.312,2.73,-62.022,10,3,4.749,25.325,31.6,9.6,2.878
2606,2778,1.7074999999999818,1.4950000000000045,1.4950000000000045,1.5658333333333303,Bi2Sb2Se6,0.092,-0.234,0.937,-41.396,10,3,3.907,46.308,47.2,15.6,2.344
2607,2779,0.03999999999996362,0.1824999999999477,0.1824999999999477,0.13499999999995302,CuLi2O2,0.152,-1.215,0.323,-23.778,5,3,1.837,14.938,10.2,5.0,2.148
2608,2780,1.6650000000000773,1.1600000000000819,1.1600000000000819,1.3283333333334137,Cs2C2O6,0.0,-1.481,1.048,-65.659,10,3,4.946,30.021,17.0,4.6,2.732
2609,2781,0.3974999999999227,0.16999999999995907,0.43499999999994543,0.33416666666660905,Cs2C2O6,0.007,-1.473,1.065,-65.585,10,3,4.669,28.876,17.0,4.6,2.732
2610,2782,1.6600000000000819,1.1900000000000546,1.1900000000000546,1.3466666666667304,K2C2O6,0.032,-1.473,0.987,-66.353,10,3,4.688,24.407,9.8,4.6,2.738
2611,2783,1.5750000000000455,1.0924999999999727,1.0924999999999727,1.2533333333333303,Rb2C2O6,0.017,-1.469,1.017,-65.693,10,3,4.779,26.95,13.4,4.6,2.738
2612,2784,5.547500000000127,5.547500000000127,5.547500000000127,5.547500000000127,Ca2Cu2Cl6,0.022,-1.617,2.718,-38.26,10,3,3.086,40.735,20.0,6.8,2.476
2613,2785,5.0499999999999545,5.0499999999999545,5.0499999999999545,5.0499999999999545,I6Ca2Cu2,0.028,-1.038,2.245,-30.626,10,3,3.685,50.995,41.6,12.8,2.176
2614,2786,0.13999999999998636,0.12000000000000455,0.10500000000001819,0.1216666666666697,I6Ca2Na2,0.059,-1.459,3.782,-30.097,10,3,4.353,57.208,38.0,10.8,1.982
2615,2787,7.730000000000018,7.730000000000018,7.730000000000018,7.730000000000018,Cd2Cu2Br6,0.006,-0.657,1.57,-25.285,10,3,3.273,42.349,36.4,14.8,2.4939999999999998
2616,2788,8.559999999999945,8.559999999999945,8.559999999999945,8.559999999999945,Cd2Cu2Cl6,0.004,-0.847,1.645,-28.384,10,3,3.038,38.467,25.6,8.8,2.614
2617,2789,7.572499999999991,7.5974999999998545,7.572499999999991,7.5808333333332785,Cd2I6Cu2,0.027,-0.418,1.507,-22.254,10,3,3.529,48.38,47.2,14.8,2.314
2618,2790,0.4399999999999977,0.4399999999999977,0.4399999999999977,0.4399999999999977,HgS2H2,0.0,-0.189,2.352,-16.636,5,3,4.085,17.243,22.8,5.2,2.3120000000000003
2619,2791,11.617500000000064,2.9400000000000546,3.792500000000018,6.116666666666712,Cd2Br6Li2,0.039,-1.129,3.286,-26.435,10,3,3.525,43.275,31.2,12.8,2.3099999999999996
2620,2792,6.559999999999945,6.447499999999991,6.447499999999991,6.4849999999999755,Cd2Cl6Li2,0.035,-1.369,4.108,-30.038,10,3,3.474,38.952,20.4,6.8,2.43
2621,2793,12.78249999999997,12.78249999999997,12.78249999999997,12.78249999999997,Cd2I6Li2,0.069,-0.811,2.482,-22.613,10,3,3.635,50.146,42.0,12.8,2.13
2622,2794,7.1825000000000045,7.1825000000000045,7.1825000000000045,7.1825000000000045,Cd2P2S6,0.0,-0.416,1.887,-41.216,10,3,3.412,34.282,22.2,7.0,2.3240000000000003
2623,2795,10.375,10.375,10.375,10.375,Cd2Se6P2,0.001,-0.315,1.271,-36.636,10,3,3.575,37.79,33.0,13.0,2.306
2624,2796,0.9750000000001364,0.9750000000001364,0.9825000000000728,0.9775000000001152,Cs2Cl2O6,0.06,-0.738,5.291,-43.36,10,3,4.581,31.399,19.2,5.2,2.854
2625,2797,0.8150000000000546,0.8125,0.8175000000001091,0.8150000000000546,K2Cl2O6,0.066,-0.727,5.441,-44.023,10,3,4.503,26.045,12.0,5.2,2.8600000000000003
2626,2798,0.007499999999993179,0.012499999999988631,0.009999999999990905,0.009999999999990905,MgO2H2,0.009,-1.768,3.352,-27.354,5,3,4.0,8.786,6.0,3.2,2.518
2627,2799,0.2249999999999659,0.2249999999999659,0.2249999999999659,0.2249999999999659,MgS2H2,0.033,-0.656,3.508,-19.701,5,3,5.165,13.856,9.2,3.2,2.1740000000000004
2628,2800,0.13750000000004547,0.13750000000004547,0.13750000000004547,0.13750000000004547,Se2MgH2,0.03,-0.475,2.75,-17.609,5,3,5.513,15.512,16.4,7.2,2.162
2629,2801,0.8149999999998272,0.8149999999998272,0.8174999999998818,0.8158333333331788,Rb2Cl2O6,0.062,-0.726,5.432,-43.391,10,3,4.511,28.404,15.6,5.2,2.8600000000000003
2630,2802,0.5249999999999773,0.46249999999997726,0.44499999999993634,0.4774999999999636,I2Se2Al2,0.007,-0.778,1.905,-22.068,6,3,6.448,22.352,33.333333333333336,12.0,2.2733333333333334
2631,2803,1.1549999999999727,1.0850000000000364,1.0850000000000364,1.1083333333333485,Nb2Co2Se6,0.016,-0.643,0.0,-64.441,10,3,3.925,33.864,34.0,12.4,2.226
2632,2804,1.4075000000000273,1.1925000000001091,1.1925000000001091,1.2641666666667486,Nb2Te6Co2,0.038,-0.329,0.0,-59.634,10,3,4.411,36.893,44.8,12.4,1.9560000000000002
2633,2805,0.9950000000000045,0.16250000000002274,0.3975000000000364,0.5183333333333545,Co2P2S6,0.073,-0.247,0.006,-54.126,10,3,2.87,28.907,18.0,6.4,2.362
2634,2806,1.2649999999999864,1.2649999999999864,1.2649999999999864,1.2649999999999864,Sc2Br2N,0.0,-1.752,0.0,-29.599,5,3,6.029,10.285,23.8,9.0,2.336
2635,2807,0.3350000000000364,0.5449999999999591,0.3350000000000364,0.40500000000001063,I2Se2Al2,0.061,-0.725,1.493,-21.748,6,3,6.088,19.773,33.333333333333336,12.0,2.2733333333333334
2636,2808,1.4250000000000114,1.4250000000000114,1.4250000000000114,1.4250000000000114,Ti2Br2N,0.0,-1.387,0.0,-31.839,5,3,5.662,9.578,24.2,9.4,2.408
2637,2809,0.5125000000000455,0.15750000000002728,0.3524999999999636,0.3408333333333455,Sb2Co2O6,0.051,-1.179,0.932,-67.807,10,3,4.0,21.019,20.4,8.4,2.85
2638,2810,0.7699999999999818,0.9524999999998727,1.0149999999998727,0.912499999999909,Sb2Co2Se6,0.076,-0.211,0.235,-48.273,10,3,2.9,36.564,36.0,14.4,2.316
2639,2811,61.9,61.9,61.9,61.9,Hf2Cl2N,0.0,-1.606,0.0,-34.964,5,3,5.762,10.025,37.0,5.4,2.3920000000000003
2640,2812,1.177500000000009,0.900000000000091,1.0750000000000455,1.050833333333382,Sb2Te6Co2,0.09,-0.093,0.133,-45.433,10,3,3.023,42.09,46.8,14.4,2.0460000000000003
2641,2813,0.6974999999999909,0.6549999999999727,0.6549999999999727,0.6691666666666455,Ta2Co2S6,0.038,-0.827,0.0,-68.83,10,3,3.62,32.349,29.6,6.4,2.224