,ind,max_valorX,max_valorY,max_valorZ,media,formula,Ehull,HF,Gap,Energy,natoms,nspecies,thickness,uc_area,average_atomic_number,average_valence_number,average_electronegativity
2393,2529,0.5349999999999682,0.4774999999999636,0.4700000000000273,0.49416666666665304,Fe3Se6,0.068,-0.292,0.312,-50.652,9,2,3.104,28.321,31.333333333333332,13.333333333333334,2.31
2394,2530,3.472499999999968,3.375,3.375,3.4074999999999895,Te6Fe3,0.094,-0.1,0.083,-47.249,9,2,3.388,32.435,43.333333333333336,13.333333333333334,2.0100000000000002
2395,2531,2.105000000000018,2.0175000000001546,2.0750000000000455,2.0658333333334062,Mn3Cl6,0.039,-1.021,1.91,-49.05,9,2,3.357,51.206,19.666666666666668,7.0,2.623333333333333
2396,2532,6.535000000000082,6.535000000000082,6.535000000000082,6.535000000000082,Ag2Cr2P4S12,0.0,-0.363,0.997,-102.151,20,4,3.761,63.803,19.7,6.3,2.3449999999999998
2397,2533,0.7749999999999773,0.8199999999999363,0.8574999999999591,0.8174999999999576,I6Mn3,0.005,-0.415,1.294,-41.753,9,2,3.986,62.077,43.666666666666664,13.666666666666666,2.29
2398,2534,1.0650000000000546,0.7300000000000182,0.7450000000000045,0.8466666666666924,Nb3Te6,0.0,-0.46,0.0,-54.35,9,2,4.122,34.978,48.333333333333336,12.333333333333334,1.9333333333333336
2399,2535,0.80499999999995,0.80499999999995,0.80499999999995,0.80499999999995,Pt3Bi6,0.102,-0.174,0.0,-48.672,9,2,3.86,38.138,81.33333333333333,13.333333333333334,2.106666666666667
2400,2536,0.9349999999999454,0.6399999999999864,0.6525000000000318,0.7424999999999878,Ta3Te6,0.015,-0.37,0.0,-52.012,9,2,4.058,34.911,59.0,12.333333333333334,1.9000000000000001
2401,2539,0.7424999999998363,0.7424999999998363,0.7424999999998363,0.7424999999998363,Sb4As2O12H2,0.024,-1.281,3.522,-120.708,20,4,3.44,60.171,18.4,8.2,2.912
2402,2541,0.5299999999997453,0.5299999999997453,0.5299999999997453,0.5299999999997453,Au4F8,0.014,-0.92,0.235,-36.258,12,2,2.589,43.72,32.333333333333336,8.333333333333334,3.5
2403,2542,0.15000000000009095,0.30999999999994543,0.17250000000012733,0.2108333333333879,Au4I8,0.034,-0.032,0.358,-24.731,12,2,3.401,72.503,61.666666666666664,15.0,2.62
2404,2545,2.8400000000001455,2.8400000000001455,2.8400000000001455,2.8400000000001455,Cr2Cu2P4S12,0.0,-0.374,1.078,-104.039,20,4,3.375,62.162,17.9,6.3,2.342
2405,2546,2.6849999999999454,2.6849999999999454,2.6849999999999454,2.6849999999999454,Co4S8,0.071,-0.317,0.322,-69.34,12,2,2.666,35.602,19.666666666666668,7.0,2.3466666666666667
2406,2547,6.9375,3.174999999999727,3.174999999999727,4.429166666666485,Cu4F8,0.0,-1.606,0.383,-46.67,12,2,6.342,21.011,15.666666666666666,8.333333333333334,3.2866666666666666
2407,2548,0.9900000000000091,0.7474999999999454,0.875,0.8708333333333181,Ge4As8,0.006,-0.047,1.186,-55.927,12,2,6.049,40.117,32.666666666666664,14.666666666666666,2.1233333333333335
2408,2549,2.2124999999999773,2.044999999999959,2.1224999999999454,2.1266666666666274,Ge4P8,0.002,0.002,1.333,-60.954,12,2,5.68,37.02,20.666666666666668,8.0,2.13
2409,2550,1.0674999999999955,0.9074999999999136,0.9874999999999545,0.9874999999999545,Sb8Ge4,0.051,0.051,0.942,-52.697,12,2,6.657,47.369,44.666666666666664,14.666666666666666,2.0366666666666666
2410,2551,0.25749999999993634,0.22749999999996362,0.22749999999996362,0.23749999999995453,Hg4I8,0.0,-0.357,1.664,-19.648,12,2,6.732,82.502,62.0,15.333333333333334,2.44
2411,2552,0.787499999999909,0.787499999999909,0.787499999999909,0.787499999999909,As4P2O12H2,0.0,-1.531,4.556,-128.137,20,4,2.811,57.5,13.0,7.2,2.939
2412,2553,7.379999999999882,7.379999999999882,7.379999999999882,7.379999999999882,In4Cl8,0.059,-0.981,2.067,-37.107,12,2,3.883,59.625,27.666666666666668,9.0,2.6999999999999997
2413,2554,4.077499999999873,4.077499999999873,4.077499999999873,4.077499999999873,As4P2S12H2,0.027,-0.125,2.041,-87.473,20,4,3.653,85.41,17.8,7.2,2.423
2414,2555,0.42999999999995,0.46249999999997726,0.43499999999994543,0.44249999999995754,Ir4Bi8,0.036,-0.024,0.0,-74.787,12,2,3.354,50.099,81.0,13.0,2.08
2415,2556,2.6075000000000728,2.3875000000000455,2.75,2.581666666666706,Ir4S8,0.076,-0.381,0.692,-74.297,12,2,2.754,41.061,36.333333333333336,7.0,2.4533333333333336
2416,2557,0.7375000000001819,0.7375000000001819,0.7375000000001819,0.7375000000001819,Sb4P2O12H2,0.0,-1.631,4.217,-129.118,20,4,3.328,57.325,16.6,7.2,2.913
2417,2558,3.5599999999999454,3.5599999999999454,3.5599999999999454,3.5599999999999454,Ir4Se8,0.036,-0.336,0.824,-68.996,12,2,2.949,44.682,48.333333333333336,13.666666666666666,2.433333333333333
2418,2559,3.900000000000091,3.900000000000091,3.900000000000091,3.900000000000091,Ir4Te8,0.066,-0.268,0.551,-65.956,12,2,3.164,50.45,60.333333333333336,13.666666666666666,2.1333333333333333
2419,2560,0.7299999999997908,0.7299999999997908,0.7299999999997908,0.7299999999997908,Mg4Cl8,0.066,-1.821,5.339,-42.606,12,2,5.552,37.533,15.333333333333334,5.333333333333333,2.5433333333333334
2420,2561,0.8575000000000728,0.8575000000000728,0.8575000000000728,0.8575000000000728,Sb2As4O12H2,0.094,-1.151,2.765,-118.622,20,4,2.861,63.265,16.6,8.2,2.925
2421,2562,1.6100000000001273,1.6100000000001273,1.6100000000001273,1.6100000000001273,I8Mn4,0.035,-0.384,0.828,-55.304,12,2,5.604,57.575,43.666666666666664,13.666666666666666,2.29
2422,2563,0.28500000000008185,0.3650000000000091,0.3949999999999818,0.3483333333333576,Na4O8,0.0,-0.793,0.0,-55.744,12,2,3.932,26.655,9.0,4.333333333333333,2.603333333333333
2423,2564,0.1999999999998181,0.25250000000005457,0.20249999999987267,0.21833333333324845,Au4V2Li2O12,0.059,-1.118,0.525,-117.201,20,4,5.411,65.755,23.2,6.4,2.8329999999999997
2424,2565,1.2149999999999181,1.2049999999999272,1.2074999999999818,1.209166666666609,Ni4Br8,0.098,-0.308,0.634,-45.366,12,2,5.306,50.784,32.666666666666664,14.666666666666666,2.61
2425,2566,1.0750000000000455,1.0750000000000455,1.0750000000000455,1.0750000000000455,I8Ni4,0.039,-0.091,0.633,-41.909,12,2,5.764,57.562,44.666666666666664,14.666666666666666,2.41
2426,2567,0.6375000000000455,0.6175000000000637,0.6199999999998909,0.625,Re2RhCoS8,0.074,-0.43,0.29,-76.482,12,4,3.274,38.338,29.166666666666668,6.666666666666667,2.3833333333333333
2427,2568,1.6524999999999181,1.6524999999999181,1.6524999999999181,1.6524999999999181,Pd4Br8,0.0,-0.375,1.148,-32.453,12,2,5.447,58.771,38.666666666666664,14.666666666666666,2.706666666666667
2428,2569,1.3074999999998909,1.3074999999998909,1.3074999999998909,1.3074999999998909,Pd4I8,0.0,-0.254,1.069,-30.155,12,2,5.914,65.262,50.666666666666664,14.666666666666666,2.506666666666667
2429,2570,1.865000000000009,1.865000000000009,1.865000000000009,1.865000000000009,Pt4Br8,0.0,-0.269,1.302,-41.316,12,2,5.353,60.628,49.333333333333336,14.666666666666666,2.733333333333333
2430,2571,1.5025000000000546,1.5025000000000546,1.5025000000000546,1.5025000000000546,Pt4I8,0.0,-0.168,1.225,-39.259,12,2,5.864,65.894,61.333333333333336,14.666666666666666,2.533333333333333
2431,2572,1.3924999999999272,1.3924999999999272,1.3924999999999272,1.3924999999999272,Re4O8,0.092,-1.434,1.304,-104.835,12,2,2.86,28.171,30.333333333333332,6.333333333333333,2.9266666666666663
2432,2573,0.4025000000001455,0.3550000000000182,0.3550000000000182,0.37083333333339397,Re4S8,0.0,-0.593,1.272,-86.371,12,2,3.501,36.525,35.666666666666664,6.333333333333333,2.3533333333333335
2433,2574,0.2424999999998363,0.25499999999988177,0.22000000000002728,0.2391666666665818,Re4S8,0.122,-0.471,0.977,-84.901,12,2,3.26,36.215,35.666666666666664,6.333333333333333,2.3533333333333335
2434,2575,1.3424999999999727,1.3424999999999727,1.3424999999999727,1.3424999999999727,IrPd2NiCl8,0.071,-0.468,0.0,-44.065,12,4,3.023,50.782,27.75,7.916666666666667,2.8158333333333334
2435,2576,0.6849999999999454,0.5525000000000091,0.5599999999999454,0.5991666666666333,Re4Se8,0.0,-0.403,1.115,-79.325,12,2,3.79,39.498,47.666666666666664,13.0,2.3333333333333335
2436,2577,0.7525000000000546,0.6399999999998727,0.6399999999998727,0.6774999999999333,Re4Te8,0.0,-0.092,0.817,-73.375,12,2,4.16,44.58,59.666666666666664,13.0,2.033333333333333
2437,2578,0.46500000000003183,0.5175000000000409,0.4149999999999636,0.4658333333333455,Bi8Rh4,0.023,-0.225,0.014,-68.678,12,2,3.314,49.77,70.33333333333333,13.0,2.106666666666667
2438,2579,3.0625,3.0625,3.0625,3.0625,Rh4S8,0.066,-0.379,0.597,-65.763,12,2,2.789,40.45,25.666666666666668,7.0,2.48
2439,2580,5.990000000000009,5.990000000000009,5.990000000000009,5.990000000000009,Ir2PdNiSe8,0.039,-0.285,0.444,-60.895,12,4,2.951,44.954,41.666666666666664,13.833333333333334,2.4091666666666662
2440,2581,4.230000000000018,4.230000000000018,4.230000000000018,4.230000000000018,Rh4Se8,0.034,-0.404,0.583,-61.302,12,2,2.976,43.981,37.666666666666664,13.666666666666666,2.4599999999999995
2441,2583,1.4525000000001,1.4525000000001,1.4525000000001,1.4525000000001,PbSrS2O8,0.025,-1.827,3.675,-76.502,12,4,6.162,24.107,18.0,6.333333333333333,2.9966666666666666
2442,2584,1.375,1.337500000000091,1.3725000000001728,1.3616666666667545,ReIr2RhSe8,0.083,-0.313,0.192,-68.98,12,4,3.39,43.578,45.5,13.5,2.4149999999999996
2443,2585,61.9,61.9,61.9,61.9,Hf2ZrTiBr8,0.001,-1.21,0.624,-56.297,12,4,4.085,44.271,40.5,12.666666666666666,2.4291666666666667
2444,2586,0.5925000000002001,0.6100000000001273,0.6550000000002001,0.6191666666668425,Se4O8,0.023,-0.679,2.822,-63.076,12,2,4.004,34.315,16.666666666666668,9.333333333333334,3.143333333333333
2445,2587,3.5049999999999955,3.5049999999999955,3.5049999999999955,3.5049999999999955,As8Si4,0.003,-0.08,1.422,-59.857,12,2,6.01,38.866,26.666666666666668,11.333333333333334,2.0866666666666664
2446,2588,2.3875000000000455,2.197499999999991,2.277500000000032,2.2875000000000227,Si4P8,0.0,-0.129,1.539,-66.056,12,2,5.626,35.603,14.666666666666666,4.666666666666667,2.0933333333333333
2447,2589,5.184999999999945,5.184999999999945,5.184999999999945,5.184999999999945,Si4S8,0.01,-0.661,3.428,-62.149,12,2,3.059,48.277,15.333333333333334,5.333333333333333,2.3533333333333335
2448,2590,0.4674999999999727,0.44000000000005457,0.4900000000000091,0.4658333333333455,Se8Si4,0.004,-0.446,2.64,-54.81,12,2,3.341,53.523,27.333333333333332,12.0,2.3333333333333335
2449,2591,2.5750000000000455,2.5750000000000455,2.5750000000000455,2.5750000000000455,Se8Si4,0.064,-0.387,1.023,-54.099,12,2,6.92,43.876,27.333333333333332,12.0,2.3333333333333335
2450,2592,6.907500000000027,6.912499999999909,6.907500000000027,6.909166666666654,Te8Si4,0.0,-0.05,1.293,-47.837,12,2,3.711,62.268,39.333333333333336,12.0,2.033333333333333
2451,2593,0.9675000000000864,0.837500000000091,0.9400000000000546,0.9150000000000773,Sn4As8,0.011,-0.03,0.75,-53.884,12,2,6.183,43.276,38.666666666666664,14.666666666666666,2.106666666666667
2452,2594,2.115000000000009,1.9049999999999727,1.9325000000000045,1.9841666666666622,Sn4Sb8,0.02,0.02,0.735,-51.229,12,2,6.854,50.847,50.666666666666664,14.666666666666666,2.02
2453,2595,1.6375000000000455,1.6375000000000455,1.6375000000000455,1.6375000000000455,Te4O8,0.0,-1.087,2.667,-66.858,12,2,4.037,31.68,22.666666666666668,9.333333333333334,2.9933333333333336
2454,2596,0.4249999999999545,0.37000000000011823,0.2875000000001364,0.36083333333340306,Ti4Se8,0.0,-1.131,0.044,-68.197,12,2,3.116,43.405,30.0,12.0,2.2133333333333334
2455,2597,1.6875,1.6875,1.6875,1.6875,V4O8,0.083,-2.239,0.304,-101.961,12,2,6.656,21.24,13.0,5.666666666666667,2.8366666666666664
2456,2599,0.5500000000001819,0.4975000000001728,0.4025000000001455,0.4833333333335001,Ir5Te10,0.077,-0.256,0.0,-82.27,15,2,3.254,64.955,60.333333333333336,13.666666666666666,2.1333333333333333
2457,2600,0.5924999999999727,0.5350000000000819,0.44250000000010914,0.5233333333333879,Rh5Te10,0.073,-0.377,0.0,-73.441,15,2,3.327,63.634,49.666666666666664,13.666666666666666,2.1599999999999997
2458,2603,1.1400000000001,1.1050000000000182,1.1050000000000182,1.1166666666667122,As6O12,0.159,-0.976,0.369,-107.041,18,2,3.006,56.132,16.333333333333332,9.0,3.02
2459,2604,2.084999999999809,2.084999999999809,2.084999999999809,2.084999999999809,Pb6I12,0.037,-0.655,1.255,-52.084,18,2,4.74,112.007,62.666666666666664,16.0,2.5500000000000003
2460,2605,3.487500000000182,3.487500000000182,3.487500000000182,3.487500000000182,Cu12S6,0.068,-0.105,0.627,-70.469,18,2,5.992,38.325,24.666666666666668,9.333333333333334,2.126666666666667
2461,2606,0.5850000000000364,0.5950000000000273,0.6074999999999591,0.5958333333333409,Tl12S6,0.064,-0.288,1.11,-59.622,18,2,4.348,94.15,59.333333333333336,10.666666666666666,2.22
2462,2607,5.682499999999891,5.682499999999891,5.682499999999891,5.682499999999891,I16Be8,0.032,-0.563,4.348,-66.785,24,2,3.304,137.703,36.666666666666664,12.0,2.296666666666667
2463,2614,2.9575000000004366,1.1725000000001273,1.1725000000001273,1.7675000000002303,BaAs2F12,0.0,-2.641,4.852,-69.812,15,3,7.531,23.366,15.333333333333334,7.733333333333333,3.534
2464,2615,0.9949999999998909,0.6750000000001819,0.6750000000001819,0.7816666666667516,BaBi2F12,0.0,-2.469,2.904,-67.248,15,3,8.432,24.742,22.0,7.733333333333333,3.5126666666666666
2465,2616,3.6700000000000728,1.625,1.625,2.306666666666691,BaP2F12,0.0,-3.007,7.041,-76.695,15,3,7.149,22.405,12.933333333333334,6.4,3.5353333333333334
2466,2618,2.2600000000002183,1.0075000000001637,1.0075000000001637,1.425000000000182,BaSb2F12,0.0,-2.827,4.966,-72.091,15,3,7.966,24.31,17.733333333333334,7.733333333333333,3.5166666666666666
2467,2627,1.5275000000001455,1.5275000000001455,1.5275000000001455,1.5275000000001455,MnAs2F12,0.0,-2.258,1.846,-71.959,15,3,7.252,23.22,13.266666666666667,8.066666666666666,3.5780000000000003
2468,2628,9.702499999999986,9.702499999999986,9.702499999999986,9.702499999999986,Ag2Mn2Br6,0.006,-0.603,1.74,-40.649,10,3,3.165,42.731,35.4,13.8,2.472
2469,2629,2.7942500000000052,2.0895000000000152,3.5630000000000166,2.8155833333333455,Ag2Mn2Cl6,0.0,-0.814,1.991,-43.963,10,3,2.962,38.724,24.6,7.8,2.592
2470,2630,1.5324999999998,1.5324999999998,1.5324999999998,1.5324999999998,MnP2F12,0.0,-2.614,3.162,-78.697,15,3,6.92,21.908,10.866666666666667,6.733333333333333,3.579333333333333
2471,2631,5.445000000000164,5.467499999999973,5.445000000000164,5.4525000000001,Ag2I6Ni2,0.036,-0.149,0.263,-30.537,10,3,3.205,45.699,46.8,14.4,2.364
2472,2632,1.5275000000001455,1.5275000000001455,1.5275000000001455,1.5275000000001455,Sb2MnF12,0.0,-2.456,1.742,-74.403,15,3,7.684,24.536,15.666666666666666,8.066666666666666,3.5606666666666666
2473,2638,8.267499999999927,2.3899999999998727,2.3899999999998727,4.349166666666558,SrAs2F12,0.0,-2.614,4.689,-69.247,15,3,7.278,22.161,14.133333333333333,7.733333333333333,3.538
2474,2641,13.240000000000236,1.9549999999999272,1.9549999999999272,5.716666666666697,SrP2F12,0.0,-2.982,6.876,-76.173,15,3,6.836,21.099,11.733333333333333,6.4,3.539333333333333
2475,2642,0.14750000000003638,0.14750000000003638,0.14750000000003638,0.14750000000003638,SrSb2F12,0.0,-2.799,4.846,-71.508,15,3,7.749,23.263,16.533333333333335,7.733333333333333,3.520666666666666
2476,2647,10.909999999999968,10.909999999999968,10.909999999999968,10.909999999999968,Ag2I6V2,0.03,-0.381,1.286,-35.41,10,3,3.298,47.817,45.8,13.4,2.308
2477,2648,0.7225000000000819,0.47250000000008185,0.5350000000000819,0.5766666666667485,As2Al2O6,0.0,-2.117,4.596,-68.72,10,3,3.77,20.289,14.0,7.2,2.822
2478,2649,0.3574999999999591,0.46249999999997726,0.4049999999999727,0.408333333333303,As2Al2S6,0.087,-0.518,1.139,-46.454,10,3,3.442,33.012,18.8,7.2,2.306
2479,2650,5.0049999999999955,5.0049999999999955,5.0049999999999955,5.0049999999999955,Al2S6B2,0.079,-0.672,0.728,-52.075,10,3,2.941,28.334,13.2,4.8,2.278
2480,2651,4.975000000000023,4.975000000000023,4.975000000000023,4.975000000000023,Ga2Al2S6,0.0,-0.874,2.835,-46.488,10,3,6.818,21.667,18.4,6.8,2.232
2481,2652,6.480000000000018,6.480000000000018,6.480000000000018,6.480000000000018,Ga2Se6Al2,0.012,-0.713,1.97,-41.311,10,3,7.269,24.009,29.2,12.8,2.2139999999999995
2482,2653,0.4375,0.2400000000000091,0.38000000000010914,0.3525000000000394,Te2Co2As,0.019,-0.235,0.0,-28.706,5,3,5.275,11.519,38.2,13.0,2.028
2483,2654,6.404999999999973,6.404999999999973,6.404999999999973,6.404999999999973,Te6Ga2Al2,0.036,-0.355,0.875,-36.063,10,3,7.931,28.165,40.0,12.8,1.9440000000000002
2484,2655,0.43000000000006366,0.4350000000000591,0.5099999999999909,0.45833333333337123,Ge2Se6Al2,0.007,-0.547,1.645,-42.879,10,3,3.3,35.801,29.4,13.0,2.254
2485,2656,0.6974999999999909,0.7300000000000182,0.6974999999999909,0.7083333333333334,Te6Ge2Al2,0.014,-0.25,0.943,-38.239,10,3,3.555,42.286,40.2,13.0,1.984
2486,2657,0.24750000000005912,0.24750000000005912,0.4550000000000409,0.3166666666667197,Ge2Al2S6,0.045,-0.65,2.014,-47.474,10,3,3.097,32.145,18.6,7.0,2.272
2487,2658,61.9,61.9,61.9,61.9,Hf2AsS2,0.045,-1.309,0.0,-34.378,5,3,6.086,11.979,41.8,7.0,1.9880000000000002
2488,2659,0.22000000000002728,0.3025000000000091,0.29750000000001364,0.27333333333335,In2Al2O6,0.096,-2.21,2.838,-65.852,10,3,5.612,16.69,17.2,6.8,2.742
2489,2660,4.284999999999968,4.284999999999968,4.284999999999968,4.284999999999968,In2Al2S6,0.054,-0.771,2.372,-45.179,10,3,6.761,23.416,22.0,6.8,2.226
2490,2661,5.772500000000036,5.772500000000036,5.772500000000036,5.772500000000036,In2Se6Al2,0.055,-0.648,1.685,-40.379,10,3,7.252,25.787,32.8,12.8,2.2079999999999997
2491,2662,5.985000000000014,5.985000000000014,5.985000000000014,5.985000000000014,In2Te6Al2,0.06,-0.324,0.744,-35.476,10,3,7.986,29.954,43.6,12.8,1.938
2492,2663,61.9,61.9,61.9,61.9,Hf2AsSe2,0.016,-1.193,0.0,-32.604,5,3,6.325,12.429,49.0,11.0,1.9759999999999998
2493,2664,61.9,61.9,61.9,61.9,Hf2Te2As,0.0,-0.912,0.0,-30.647,5,3,6.659,13.171,56.2,11.0,1.796
2494,2665,0.39999999999997726,0.39999999999997726,0.39999999999997726,0.39999999999997726,Ni2AsS2,0.086,-0.275,0.0,-28.687,5,3,4.553,10.979,24.2,9.4,2.232
2495,2666,0.28499999999996817,0.28499999999996817,0.3774999999999409,0.3158333333332924,Ni2AsSe2,0.002,-0.295,0.0,-27.597,5,3,4.824,11.455,31.4,13.4,2.2199999999999998
2496,2667,0.49500000000000455,0.49500000000000455,0.49500000000000455,0.49500000000000455,Te2Ni2As,0.005,-0.257,0.0,-26.852,5,3,5.156,12.158,38.6,13.4,2.04
2497,2668,0.8899999999999864,0.8899999999999864,0.8899999999999864,0.8899999999999864,Pd2Te2As,0.08,-0.275,0.0,-20.087,5,3,5.478,13.607,45.8,13.4,2.156
2498,2669,0.2400000000000091,0.214999999999975,0.3924999999999841,0.28249999999998937,Ti2AsS2,0.044,-1.117,0.0,-31.782,5,3,5.916,10.718,21.8,7.0,2.084
2499,2670,0.625,0.625,0.625,0.625,Zr2AsS2,0.041,-1.381,0.0,-34.528,5,3,6.118,12.148,29.0,7.0,2.0
2500,2671,0.7200000000000273,0.6924999999999955,0.82000000000005,0.744166666666691,Ti2AsSe2,0.023,-1.025,0.0,-30.135,5,3,6.114,11.195,29.0,11.0,2.072
2501,2672,1.1100000000000136,1.1100000000000136,1.1100000000000136,1.1100000000000136,Zr2AsSe2,0.012,-1.279,0.0,-32.828,5,3,6.374,12.56,36.2,11.0,1.988
2502,2673,0.6025000000000205,0.5325000000000273,0.6349999999999909,0.5900000000000128,Te2Ti2As,0.0,-0.803,0.0,-28.468,5,3,6.415,11.973,36.2,11.0,1.8920000000000001
2503,2674,1.3675000000000068,1.3675000000000068,1.3675000000000068,1.3675000000000068,Zr2Te2As,0.0,-1.028,0.0,-31.02,5,3,6.744,13.219,43.4,11.0,1.8080000000000003
2504,2676,0.9325000000000045,0.7024999999999864,0.7150000000000318,0.7833333333333409,Al2Si2S6,0.039,-0.798,2.67,-50.719,10,3,3.106,31.001,15.0,5.0,2.25
2505,2677,1.3275000000001,1.1875,1.2200000000000273,1.2450000000000425,Se6Al2Si2,0.002,-0.629,2.144,-45.462,10,3,3.305,34.721,25.8,11.0,2.232
2506,2678,0.6924999999999955,0.6924999999999955,0.7950000000000728,0.7266666666666879,Te6Al2Si2,0.002,-0.27,1.115,-40.2,10,3,3.557,41.301,36.6,11.0,1.9620000000000002
2507,2679,1.2674999999999272,0.2524999999998272,0.5724999999999909,0.6974999999999151,Bi2As2O6,0.0,-1.266,2.835,-62.079,10,3,4.422,24.802,28.0,9.6,2.904
2508,2680,61.9,61.9,61.9,61.9,Hf2Cl2B,0.0,-1.38,0.0,-32.186,5,3,5.986,10.513,36.6,5.0,2.192
2509,2681,1.170000000000016,1.170000000000016,1.170000000000016,1.170000000000016,Nb2Cl2B,0.009,-1.074,0.0,-36.3,5,3,5.777,9.863,24.2,5.4,2.312
2510,2682,1.4499999999999886,1.4499999999999886,1.4499999999999886,1.4499999999999886,Ta2Cl2B,0.0,-1.028,0.0,-35.048,5,3,5.748,9.941,37.0,5.4,2.272