,ind,max_valorX,max_valorY,max_valorZ,media,formula,Ehull,HF,Gap,Energy,natoms,nspecies,thickness,uc_area,average_atomic_number,average_valence_number,average_electronegativity
3965,4184,0.2524999999998272,0.2524999999998272,0.30749999999989086,0.27083333333318177,Ru2Cl6,0.021,-0.549,0.0,-34.028,8,2,2.667,31.871,23.75,7.25,2.92
3966,4185,1.5399999999999636,0.5699999999999363,0.5524999999997817,0.8874999999998939,Ga2S2O8H2,0.018,-1.381,4.421,-80.946,14,4,3.777,27.392,11.428571428571429,6.285714285714286,2.907142857142857
3967,4186,0.5675000000001091,0.20499999999992724,0.08500000000003638,0.2858333333333576,Ga2Se2O8H2,0.0,-1.241,4.295,-77.785,14,4,4.03,28.25,14.0,7.714285714285714,2.9028571428571426
3968,4187,7.7974999999999,6.7000000000000455,6.7000000000000455,7.06583333333333,Te2Ga2O8H2,0.046,-1.327,3.859,-78.443,14,4,4.292,28.974,16.571428571428573,7.714285714285714,2.8385714285714285
3969,4188,0.2949999999999591,0.49500000000000455,0.3925000000000409,0.39416666666666816,Ru2I6,0.0,-0.074,0.0,-28.387,8,2,3.055,42.608,50.75,14.75,2.545
3970,4189,1.5750000000000455,0.625,0.5900000000001455,0.9300000000000637,In2S2O8H2,0.033,-1.319,3.782,-79.795,14,4,3.861,31.316,14.0,6.285714285714286,2.902857142857143
3971,4190,0.5275000000001455,0.21500000000014552,0.07000000000016371,0.2708333333334849,In2Se2O8H2,0.0,-1.176,4.027,-76.592,14,4,4.136,32.035,16.571428571428573,7.714285714285714,2.8985714285714286
3972,4191,0.5299999999999727,0.25,0.1775000000000091,0.3191666666666606,In2Te2O8H2,0.021,-1.265,3.789,-77.288,14,4,4.401,33.065,19.142857142857142,7.714285714285714,2.834285714285714
3973,4192,1.900000000000091,1.900000000000091,1.900000000000091,1.900000000000091,In2Te2S8H2,0.08,-0.17,1.96,-53.589,14,4,5.251,46.919,23.714285714285715,7.714285714285714,2.3428571428571425
3974,4193,1.1075000000000728,1.1075000000000728,1.1299999999998818,1.115000000000009,Sb2F6,0.0,-2.465,5.087,-38.051,8,2,1.71,34.119,19.5,9.0,3.4974999999999996
3975,4194,1.8874999999999318,1.8874999999999318,1.8874999999999318,1.8874999999999318,Sb2I6,0.0,-0.374,1.826,-20.671,8,2,3.58,51.103,52.5,16.5,2.5075000000000003
3976,4195,8.312499999999996,8.312499999999996,8.312499999999996,8.312499999999996,PdAgBrCl5,0.0,-0.357,0.264,-20.027,8,4,2.888,37.286,26.625,9.125,2.86125
3977,4196,8.100000000000023,8.120000000000005,8.100000000000023,8.106666666666683,WAgSeBr5,0.018,-0.434,0.802,-29.203,8,4,3.605,45.383,41.25,14.75,2.705
3978,4197,0.31999999999993634,0.31999999999993634,0.38249999999993634,0.34083333333326965,Sc2Br6,0.0,-1.779,2.975,-33.061,8,2,3.078,40.306,31.5,13.5,2.5599999999999996
3979,4198,0.7749999999999773,0.7824999999999136,0.787499999999909,0.7816666666666,IrCoBr5Cl,0.0,-0.415,0.726,-30.529,8,4,2.805,34.086,37.0,13.75,2.7550000000000003
3980,4199,0.875,0.875,0.875,0.875,MnGaBr5Cl,0.015,-0.785,0.535,-28.607,8,4,3.044,36.838,31.0,14.0,2.665
3981,4200,0.4574999999999818,0.5449999999999591,0.4574999999999818,0.4866666666666409,Sc2Cl6,0.0,-2.163,3.922,-37.337,8,2,2.853,36.454,18.0,6.0,2.71
3982,4201,0.34999999999990905,0.4375,0.3874999999999318,0.3916666666666136,MoSbClO5,0.083,-1.468,2.36,-54.761,8,4,3.069,29.492,18.75,7.25,3.07125
3983,4202,0.49500000000000455,0.5025000000000546,0.49500000000000455,0.4975000000000212,TeI5CrMn,0.081,-0.308,0.078,-32.186,8,4,3.269,42.218,45.75,14.25,2.32625
3984,4203,0.12249999999994543,0.12249999999994543,0.12249999999994543,0.12249999999994543,Sc2F6,0.085,-4.017,6.884,-50.973,8,2,2.167,26.856,12.0,6.0,3.3249999999999997
3985,4204,0.23749999999995453,0.4399999999999409,0.34000000000003183,0.3391666666666424,I6Sc2,0.0,-1.289,1.851,-28.499,8,2,3.363,46.819,45.0,13.5,2.335
3986,4205,1.490000000000009,1.490000000000009,1.490000000000009,1.490000000000009,I6Sc2,0.047,-1.242,1.073,-28.123,8,2,3.834,44.909,45.0,13.5,2.335
3987,4206,1.1225000000000591,1.1225000000000591,1.1225000000000591,1.1225000000000591,OsPtIBr5,0.0,-0.16,0.319,-28.226,8,4,2.934,38.234,47.75,15.0,2.7425
3988,4207,0.9875000000000682,0.30500000000006366,0.7699999999999818,0.6875000000000379,Sc2S6,0.189,-1.033,0.0,-42.049,8,2,6.267,17.961,17.25,5.25,2.275
3989,4208,6.837500000000091,6.617500000000064,6.617500000000064,6.690833333333406,As2Se2O10H2,0.023,-0.916,3.224,-88.84,16,4,6.351,29.815,13.5,7.75,3.01625
3990,4209,2.0799999999999272,1.6675000000000182,1.9800000000000182,1.9091666666666545,Sn2Te6,0.096,-0.043,0.148,-27.687,8,2,6.796,28.376,51.5,15.5,2.0650000000000004
3991,4210,0.8550000000000182,0.7999999999999545,0.8125,0.8224999999999909,Te2As2O10H2,0.0,-1.114,3.389,-91.45,16,4,6.305,30.135,15.75,7.75,2.96
3992,4211,8.024999999999864,7.279999999999973,7.279999999999973,7.528333333333269,Se2P2O10H2,0.0,-1.341,3.463,-97.038,16,4,5.877,28.384,11.25,6.5,3.0174999999999996
3993,4212,16.97499999999991,9.527499999999918,13.522500000000036,13.34166666666662,Te2P2O10H2,0.0,-1.554,3.513,-99.891,16,4,5.835,28.874,13.5,6.5,2.9612499999999997
3994,4213,0.9349999999999454,1.0675000000001091,1.087500000000091,1.0300000000000484,Te2P2S10H2,0.059,-0.044,1.1,-65.268,16,4,6.262,44.134,18.5,6.5,2.42375
3995,4214,13.149999999999864,12.027499999999918,12.11999999999989,12.43249999999989,Sb2Se2O10H2,0.09,-0.94,2.86,-88.704,16,4,6.527,29.466,15.75,7.75,2.9999999999999996
3996,4215,0.9600000000000364,0.9100000000000819,0.9200000000000728,0.9300000000000637,Sb2Te2O10H2,0.084,-1.09,2.555,-90.554,16,4,6.55,31.792,18.0,7.75,2.94375
3997,4216,0.34000000000003183,0.10750000000007276,0.22250000000008185,0.22333333333339547,Ta2S6,0.044,-0.8,0.0,-50.501,8,2,5.748,16.76,30.25,5.75,2.31
3998,4217,0.6024999999999636,0.34999999999990905,0.34749999999996817,0.4333333333332803,Ta2Se6,0.046,-0.634,0.0,-45.601,8,2,6.102,18.827,43.75,13.25,2.2874999999999996
3999,4218,1.2799999999999727,0.5575000000000045,0.47249999999996817,0.7699999999999818,Ta2Te6,0.074,-0.235,0.0,-40.743,8,2,6.625,22.228,57.25,13.25,1.9500000000000002
4000,4219,1.4675000000000864,1.4675000000000864,1.4675000000000864,1.4675000000000864,Ti2Br6,0.065,-1.193,0.17,-32.428,8,2,3.262,37.653,31.75,13.75,2.6049999999999995
4001,4220,2.0149999999999864,2.0149999999999864,2.0149999999999864,2.0149999999999864,Ti2Cl6,0.071,-1.564,0.121,-36.604,8,2,3.036,33.68,18.25,6.25,2.755
4002,4221,1.1374999999999318,1.1374999999999318,1.1374999999999318,1.1374999999999318,I6Ti2,0.083,-0.728,0.209,-28.078,8,2,3.56,44.318,45.25,13.75,2.38
4003,4222,0.47249999999996817,0.13999999999998636,0.3550000000000182,0.3224999999999909,Ti2O6,0.144,-2.166,2.461,-61.457,8,2,4.518,11.821,11.5,5.5,2.965
4004,4223,0.7799999999999727,0.2949999999999591,0.6150000000000091,0.5633333333333136,Ti2S6,0.0,-0.991,0.295,-45.778,8,2,5.693,17.199,17.5,5.5,2.3200000000000003
4005,4224,0.6574999999999136,0.5174999999999272,0.4900000000000091,0.55499999999995,Te6Ti2,0.034,-0.491,0.0,-36.535,8,2,6.54,22.22,44.5,13.0,1.9600000000000002
4006,4225,0.33749999999997726,0.3574999999999591,0.33749999999997726,0.34416666666663787,Tl2Br6,0.0,-0.515,1.661,-18.625,8,2,3.252,43.779,46.5,16.0,2.7299999999999995
4007,4226,3.0750000000000455,3.0750000000000455,3.0750000000000455,3.0750000000000455,Mo2Te2Mg2O12,0.004,-1.951,3.167,-128.662,18,4,7.708,26.922,17.11111111111111,6.666666666666667,2.9122222222222223
4008,4227,3.6000000000001364,3.6000000000001364,3.6000000000001364,3.6000000000001364,W2Se2Mg2O12,0.076,-1.857,3.505,-128.085,18,4,7.793,25.825,18.666666666666668,6.666666666666667,2.9844444444444442
4009,4228,0.30999999999994543,0.3125,0.3125,0.3116666666666485,Tl2Cl6,0.0,-0.703,2.425,-21.33,8,2,3.018,39.783,33.0,8.5,2.88
4010,4229,3.1275000000000546,3.1275000000000546,3.1275000000000546,3.1275000000000546,W2Te2Mg2O12,0.028,-2.003,3.464,-130.159,18,4,7.7,26.975,20.666666666666668,6.666666666666667,2.9344444444444444
4011,4230,0.1349999999999909,0.1349999999999909,0.1349999999999909,0.1349999999999909,Tl2F6,0.005,-1.904,3.046,-29.745,8,2,2.335,30.795,27.0,8.5,3.495
4012,4231,1.5574999999998909,1.5574999999998909,1.5574999999998909,1.5574999999998909,Tl2F6,0.032,-1.877,2.507,-29.532,8,2,3.048,23.325,27.0,8.5,3.495
4013,4232,1.6599999999998545,1.6599999999998545,1.6599999999998545,1.6599999999998545,Mo2Zn2S2O12,0.09,-1.555,3.518,-122.413,18,4,7.733,30.0,15.11111111111111,6.666666666666667,3.0033333333333334
4014,4233,1.197499999999991,1.197499999999991,1.197499999999991,1.197499999999991,V2Br6,0.0,-0.926,0.0,-33.963,8,2,2.929,37.709,32.0,14.0,2.6274999999999995
4015,4234,1.580000000000041,1.580000000000041,1.580000000000041,1.580000000000041,V2Cl6,0.0,-1.271,0.0,-37.926,8,2,2.723,33.547,18.5,6.5,2.7775
4016,4235,1.6675000000000182,1.6675000000000182,1.6675000000000182,1.6675000000000182,Mo2Te2Zn2O12,0.007,-1.621,3.118,-121.855,18,4,7.726,26.877,19.11111111111111,7.777777777777778,2.95
4017,4236,1.6475000000000364,1.6475000000000364,1.6475000000000364,1.6475000000000364,W2Zn2Se2O12,0.092,-1.521,3.495,-121.173,18,4,7.805,25.809,20.666666666666668,7.777777777777778,3.022222222222222
4018,4237,0.6875,0.7549999999999955,0.7300000000000182,0.7241666666666712,I6V2,0.005,-0.509,0.0,-29.992,8,2,3.188,44.307,45.5,14.0,2.4025
4019,4238,1.6574999999998,1.6574999999998,1.6574999999998,1.6574999999998,W2Te2Zn2O12,0.032,-1.673,3.405,-123.346,18,4,7.715,26.937,22.666666666666668,7.777777777777778,2.9722222222222223
4020,4239,1.1000000000000227,1.0575000000000045,0.6074999999999591,0.9216666666666621,Te6V2,0.067,-0.175,0.0,-37.676,8,2,6.693,21.935,44.75,13.25,1.9825000000000002
4021,4240,1.7100000000000364,1.6950000000001637,1.6950000000001637,1.7000000000001212,ReNiCuBr8,0.0,-0.316,0.0,-38.733,11,4,3.134,51.165,37.45454545454545,14.909090909090908,2.671818181818182
4022,4241,2.0674999999999955,2.0674999999999955,2.0674999999999955,2.0674999999999955,W2Cl6,0.052,-0.764,0.548,-39.797,8,2,3.469,30.039,31.25,6.75,2.96
4023,4242,1.3524999999999636,1.3524999999999636,1.3524999999999636,1.3524999999999636,W2Cl6,0.108,-0.709,0.487,-39.351,8,2,3.044,26.745,31.25,6.75,2.96
4024,4243,1.2999999999999545,1.2999999999999545,1.2999999999999545,1.2999999999999545,W2Cl6,0.164,-0.652,0.706,-38.9,8,2,3.144,26.432,31.25,6.75,2.96
4025,4244,0.3224999999999909,0.47750000000002046,0.472500000000025,0.4241666666666788,W2H6,0.129,0.129,0.0,-41.882,8,2,4.152,9.326,19.25,2.25,2.24
4026,4245,1.3700000000000045,1.3700000000000045,1.3700000000000045,1.3700000000000045,W2I6,0.001,0.001,0.376,-31.83,8,2,4.142,38.711,58.25,14.25,2.585
4027,4246,1.2999999999999545,1.2999999999999545,1.2999999999999545,1.2999999999999545,W2I6,0.069,0.069,0.705,-31.288,8,2,3.186,44.912,58.25,14.25,2.585
4028,4247,0.8799999999999955,0.8799999999999955,0.8799999999999955,0.8799999999999955,W2I6,0.19,0.19,0.223,-30.319,8,2,3.494,36.678,58.25,14.25,2.585
4029,4248,0.30749999999989086,0.3249999999999318,0.3125,0.3149999999999409,W2O6,0.066,-2.18,1.267,-71.154,8,2,6.463,14.246,24.5,6.0,3.17
4030,4249,0.37000000000000455,0.37000000000000455,0.37000000000000455,0.37000000000000455,Y2Br6,0.0,-1.963,4.087,-34.597,8,2,3.23,45.487,36.0,13.5,2.525
4031,4250,9.735000000000014,9.735000000000014,9.735000000000014,9.735000000000014,Y2Br6,0.056,-1.907,2.911,-34.149,8,2,4.242,35.938,36.0,13.5,2.525
4032,4251,0.4574999999999818,0.4574999999999818,0.4574999999999818,0.4574999999999818,Y2Cl6,0.0,-2.345,5.113,-38.851,8,2,2.994,42.02,22.5,6.0,2.6750000000000003
4033,4252,1.1849999999999454,1.1849999999999454,1.1849999999999454,1.1849999999999454,Y2Cl6,0.041,-2.303,3.858,-38.519,8,2,3.939,32.554,22.5,6.0,2.6750000000000003
4034,4253,0.15000000000009095,0.15000000000009095,0.15000000000009095,0.15000000000009095,Y2F6,0.0,-4.154,7.728,-52.137,8,2,2.271,32.229,16.5,6.0,3.29
4035,4254,0.34749999999996817,0.34749999999996817,0.34749999999996817,0.34749999999996817,Y2I6,0.001,-1.471,2.756,-30.02,8,2,3.526,51.473,49.5,13.5,2.3000000000000003