,ind,max_valorX,max_valorY,max_valorZ,media,formula,Ehull,HF,Gap,Energy,natoms,nspecies,thickness,uc_area,average_atomic_number,average_valence_number,average_electronegativity
3842,4057,1.5199999999999818,1.5199999999999818,1.5199999999999818,1.5199999999999818,Sn2P2S6F2,0.0,-0.8,2.338,-56.08,12,4,5.898,42.752,20.333333333333332,7.333333333333333,2.645
3843,4058,0.5650000000000546,0.5650000000000546,0.5650000000000546,0.5650000000000546,Ge2P2O6H2,0.0,-1.471,4.883,-74.806,12,4,5.039,30.94,12.0,6.333333333333333,2.7866666666666666
3844,4059,0.6000000000000227,0.5874999999999773,0.5874999999999773,0.5916666666666591,Ge2P2S6H2,0.042,-0.204,2.464,-53.322,12,4,5.654,43.039,16.0,6.333333333333333,2.356666666666667
3845,4060,2.6724999999999,0.9724999999998545,0.9724999999998545,1.5391666666665362,Pb2P2O6H2,0.014,-1.547,3.917,-74.208,12,4,5.084,29.818,20.333333333333332,6.333333333333333,2.84
3846,4061,1.4874999999999545,1.4874999999999545,1.4874999999999545,1.4874999999999545,Pb2P2S6H2,0.034,-0.335,1.884,-53.382,12,4,5.247,42.11,24.333333333333332,6.333333333333333,2.41
3847,4062,0.5649999999998272,0.5649999999998272,0.5649999999998272,0.5649999999998272,Sn2P2O6H2,0.0,-1.532,4.3,-74.615,12,4,5.019,31.323,15.0,6.333333333333333,2.7783333333333338
3848,4063,0.5099999999999909,0.4800000000000182,0.9600000000000364,0.6500000000000151,Rb2Se2O6H2,0.132,-1.064,1.677,-58.95,12,4,5.183,33.024,16.0,6.0,2.6483333333333334
3849,4068,0.33750000000009095,0.33750000000009095,0.33750000000009095,0.33750000000009095,Ge2As2S6C2H6,0.076,-0.143,1.726,-83.791,18,5,8.44,44.773,13.555555555555555,6.0,2.3422222222222224
3850,4069,0.43250000000000455,0.5049999999999955,0.43250000000000455,0.45666666666666816,Br6Al2,0.01,-1.119,3.897,-25.935,8,2,2.907,36.123,29.5,13.5,2.6224999999999996
3851,4070,0.3125,0.3125,0.3125,0.3125,Pb2As2S6C2H6,0.044,-0.213,1.994,-83.524,18,5,8.789,44.393,19.11111111111111,6.0,2.377777777777778
3852,4071,0.7275000000000773,0.7275000000000773,0.7275000000000773,0.7275000000000773,Al2Cl6,0.0,-1.53,5.487,-30.429,8,2,2.681,31.53,16.0,6.0,2.7725
3853,4072,0.16500000000009862,0.16500000000009862,0.16500000000009862,0.16500000000009862,Al2F6,0.033,-3.566,8.409,-45.522,8,2,2.005,20.882,10.0,6.0,3.3874999999999997
3854,4073,0.32750000000010004,0.32750000000010004,0.32750000000010004,0.32750000000010004,Sn2As2S6C2H6,0.052,-0.186,1.881,-83.632,18,5,8.538,45.86,15.555555555555555,6.0,2.336666666666667
3855,4074,0.3224999999999909,0.44000000000005457,0.38999999999998636,0.38416666666667726,I6Al2,0.053,-0.63,2.093,-21.383,8,2,3.203,43.35,43.0,13.5,2.3975
3856,4075,1.7250000000000227,1.7250000000000227,1.7250000000000227,1.7250000000000227,I6As2,0.002,-0.21,1.911,-19.876,8,2,3.366,46.127,48.0,16.5,2.54
3857,4076,0.6124999999999545,0.6124999999999545,0.6124999999999545,0.6124999999999545,Au2Br6,0.0,-0.138,0.693,-16.872,8,2,2.776,54.215,46.0,15.5,2.8549999999999995
3858,4077,0.7474999999999454,0.7474999999999454,0.7474999999999454,0.7474999999999454,Au2Br6,0.121,-0.017,0.082,-15.903,8,2,3.044,40.606,46.0,15.5,2.8549999999999995
3859,4078,1.1899999999998272,1.1899999999998272,1.1899999999998272,1.1899999999998272,Au2Cl6,0.169,-0.098,0.208,-17.757,8,2,2.837,36.65,32.5,8.0,3.005
3860,4079,0.6349999999999909,0.6349999999999909,0.6349999999999909,0.6349999999999909,Au2F6,0.121,-0.895,0.302,-22.943,8,2,2.28,27.932,26.5,8.0,3.62
3861,4080,0.2875000000001364,0.30500000000006366,0.2875000000001364,0.2933333333334455,Cs2S2C2O6H6,0.096,-1.065,4.52,-98.129,18,5,9.037,31.932,11.555555555555555,3.5555555555555554,2.5377777777777784
3862,4081,2.7999999999999545,2.7999999999999545,2.7999999999999545,2.7999999999999545,Bi2Br6,0.0,-0.791,1.954,-25.187,8,2,3.364,47.417,47.0,16.5,2.7249999999999996
3863,4082,3.167500000000018,3.167500000000018,3.167500000000018,3.167500000000018,Bi2Br6,0.029,-0.763,1.356,-24.957,8,2,3.808,44.684,47.0,16.5,2.7249999999999996
3864,4083,4.284999999999968,4.282500000000027,4.282500000000027,4.283333333333341,Bi2Cl6,0.0,-1.014,2.36,-28.175,8,2,3.136,44.241,33.5,9.0,2.875
3865,4084,7.545000000000073,7.545000000000073,7.545000000000073,7.545000000000073,Bi2Cl6,0.059,-0.956,2.184,-27.705,8,2,4.193,48.161,33.5,9.0,2.875
3866,4085,0.3975000000000364,0.4075000000000273,0.44000000000005457,0.4150000000000394,Ge2P2C2O6H6,0.0,-1.108,4.605,-108.833,18,5,6.935,30.777,8.88888888888889,4.888888888888889,2.6300000000000003
3867,4086,1.6000000000001364,1.6000000000001364,1.6000000000001364,1.6000000000001364,Bi2F6,0.053,-2.488,4.317,-38.772,8,2,1.901,33.897,27.5,9.0,3.4899999999999998
3868,4087,0.3224999999999909,0.3224999999999909,0.3224999999999909,0.3224999999999909,Ge2P2S6C2H6,0.0,-0.262,2.586,-87.33,18,5,8.206,42.409,11.555555555555555,4.888888888888889,2.3433333333333333
3869,4088,2.072499999999991,2.072499999999991,2.072499999999991,2.072499999999991,Bi2I6,0.0,-0.495,1.377,-22.176,8,2,3.646,53.124,60.5,16.5,2.5
3870,4089,0.3425000000002001,0.3425000000002001,0.3425000000002001,0.3425000000002001,Sb2Ge2S6C2H6,0.093,-0.133,1.549,-83.093,18,5,8.791,48.644,15.555555555555555,6.0,2.327777777777778
3871,4090,0.8825000000001637,0.8825000000001637,0.8825000000001637,0.8825000000001637,K2S2C2O6F6,0.05,-1.725,5.904,-100.356,18,5,9.398,27.33,10.222222222222221,5.555555555555555,3.1344444444444446
3872,4091,0.5100000000001046,0.5100000000001046,0.5100000000001046,0.5100000000001046,Co2Br6,0.0,-0.406,0.962,-29.211,8,2,2.718,33.342,33.0,15.0,2.6899999999999995
3873,4092,0.46499999999991815,0.4375,0.4375,0.4466666666666394,K2Se2S6C2H6,0.067,-0.266,0.871,-77.041,18,5,8.887,40.7,12.222222222222221,4.666666666666667,2.2511111111111113
3874,4093,0.8524999999999636,0.8524999999999636,0.8524999999999636,0.8524999999999636,Co2Cl6,0.0,-0.654,1.13,-32.4,8,2,2.53,29.332,19.5,7.5,2.84
3875,4094,1.1050000000000182,1.1050000000000182,1.1050000000000182,1.1050000000000182,Co2F6,0.0,-1.89,1.246,-41.101,8,2,2.03,20.593,13.5,7.5,3.455
3876,4095,0.37999999999999545,0.5074999999999363,0.5049999999999955,0.4641666666666424,I6Co2,0.0,-0.138,0.526,-26.432,8,2,2.945,39.396,46.5,15.0,2.465
3877,4096,1.2850000000000819,0.8675000000000637,0.9825000000000728,1.0450000000000728,Pb2P2C2O6H6,0.0,-1.15,3.807,-108.076,18,5,7.306,30.623,14.444444444444445,4.888888888888889,2.6655555555555557
3878,4097,0.29750000000012733,0.29750000000012733,0.29750000000012733,0.29750000000012733,Pb2P2S6C2H6,0.0,-0.338,2.11,-87.181,18,5,8.497,43.037,17.11111111111111,4.888888888888889,2.378888888888889
3879,4098,0.40249999999991815,0.41000000000008185,0.45249999999987267,0.4216666666666242,Sn2P2C2O6H6,0.0,-1.145,4.034,-108.58,18,5,7.003,31.587,10.88888888888889,4.888888888888889,2.6244444444444444
3880,4099,0.30999999999994543,0.30999999999994543,0.30999999999994543,0.30999999999994543,Sn2P2S6C2H6,0.0,-0.308,2.463,-87.231,18,5,8.337,43.769,13.555555555555555,4.888888888888889,2.337777777777778
3881,4100,0.92999999999995,0.3874999999999318,0.3324999999999818,0.5499999999999545,Te6Co2,0.193,0.026,0.0,-35.478,8,2,6.222,21.974,45.75,14.25,2.045
3882,4101,1.0325000000000273,1.0325000000000273,1.0325000000000273,1.0325000000000273,Cr2Br6,0.0,-0.848,1.51,-35.111,8,2,2.878,35.992,32.25,14.25,2.635
3883,4102,0.32750000000010004,0.32750000000010004,0.32750000000010004,0.32750000000010004,Pb2Sb2S6C2H6,0.086,-0.202,1.973,-82.823,18,5,9.036,47.326,21.11111111111111,6.0,2.3633333333333337
3884,4103,1.3549999999999045,1.3549999999999045,1.3549999999999045,1.3549999999999045,Cr2Cl6,0.0,-1.169,1.735,-38.876,8,2,2.678,31.817,18.75,6.75,2.785
3885,4104,1.4574999999999818,1.4574999999999818,1.4574999999999818,1.4574999999999818,Cr2F6,0.032,-2.719,2.023,-50.092,8,2,2.079,22.911,12.75,6.75,3.4
3886,4105,0.5025000000000546,0.5625,0.525000000000091,0.5300000000000485,I6Cr2,0.0,-0.464,0.891,-31.399,8,2,3.134,42.532,45.75,14.25,2.41
3887,4106,0.4574999999999818,0.43250000000000455,0.43250000000000455,0.4408333333333303,Rb2Se2S6C2H6,0.064,-0.268,0.968,-76.458,18,5,8.95,43.719,14.222222222222221,4.666666666666667,2.2511111111111113
3888,4107,0.42999999999995,0.42999999999995,0.42999999999995,0.42999999999995,Cu2Br6,0.091,-0.152,0.107,-18.075,8,2,2.895,36.374,33.5,15.5,2.695
3889,4108,1.1774999999997817,1.1774999999997817,1.1774999999997817,1.1774999999997817,Cu2Cl6,0.072,-0.31,0.426,-20.542,8,2,2.686,32.297,20.0,8.0,2.845
3890,4109,1.0699999999999363,1.0699999999999363,1.0699999999999363,1.0699999999999363,Cu2F6,0.0,-1.448,0.907,-28.458,8,2,2.117,22.293,14.0,8.0,3.46
3891,4110,0.33750000000009095,0.33750000000009095,0.33750000000009095,0.33750000000009095,Sn2Sb2S6C2H6,0.088,-0.175,1.627,-82.937,18,5,8.789,49.33,17.555555555555557,6.0,2.3222222222222224
3892,4111,0.8300000000000409,0.8300000000000409,0.8300000000000409,0.8300000000000409,Fe2Cl6,0.09,-0.655,0.013,-34.033,8,2,2.573,30.24,19.25,7.25,2.8275
3893,4112,0.09000000000003183,0.38249999999993634,0.39249999999992724,0.28833333333329847,I6Fe2,0.02,-0.077,0.0,-27.567,8,2,2.993,40.36,46.25,14.75,2.4525
3894,4113,0.29500000000007276,0.375,0.3025000000000091,0.32416666666669397,Ga2Br6,0.066,-0.782,2.594,-21.571,8,2,2.969,37.259,34.0,16.0,2.6725
3895,4114,0.6449999999999818,0.6449999999999818,0.6449999999999818,0.6449999999999818,Ga2Cl6,0.012,-1.09,3.83,-25.233,8,2,2.751,32.875,20.5,8.5,2.8225000000000002
3896,4115,0.1374999999999531,0.1374999999999531,0.1374999999999531,0.1374999999999531,Ga2F6,0.0,-2.708,5.827,-36.989,8,2,2.127,23.206,14.5,8.5,3.4375
3897,4116,0.2699999999999818,0.43000000000006366,0.35750000000007276,0.3525000000000394,I6Ga2,0.116,-0.396,1.153,-17.847,8,2,3.267,44.064,47.5,16.0,2.4475000000000002
3898,4117,61.9,61.9,61.9,61.9,Hf3ZrSe3Br3SCl,0.095,-1.338,0.0,-67.043,12,6,3.548,47.912,41.333333333333336,10.666666666666666,2.2916666666666665
3899,4118,61.9,61.9,61.9,61.9,Hf2I6,0.151,-0.736,0.0,-29.772,8,2,3.69,42.966,57.75,13.75,2.3200000000000003
3900,4119,61.9,61.9,61.9,61.9,Hf2O6,0.177,-2.461,3.47,-65.446,8,2,4.713,13.209,24.0,5.5,2.9050000000000002
3901,4120,61.9,61.9,61.9,61.9,Hf2S6,0.0,-1.209,1.157,-49.149,8,2,5.889,18.646,30.0,5.5,2.2600000000000002
3902,4121,61.9,61.9,61.9,61.9,Hf2Se6,0.003,-1.016,0.272,-44.039,8,2,6.194,20.449,43.5,13.0,2.2375
3903,4122,61.9,61.9,61.9,61.9,Hf2Te6,0.024,-0.619,0.0,-39.191,8,2,6.696,23.454,57.0,13.0,1.9000000000000001
3904,4123,0.3524999999999636,0.3524999999999636,0.3524999999999636,0.3524999999999636,In2Br6,0.0,-0.871,2.745,-21.999,8,2,3.143,41.597,38.5,16.0,2.6649999999999996
3905,4124,1.7474999999999454,1.7474999999999454,1.7474999999999454,1.7474999999999454,TaZrVBr4S3,0.092,-1.099,0.429,-55.307,10,5,5.364,38.573,32.4,10.0,2.404
3906,4125,0.8450000000000273,0.8450000000000273,0.8450000000000273,0.8450000000000273,Ag2Cl2C6N2H8,0.089,-0.175,1.671,-111.368,20,5,5.709,40.742,9.3,3.9,2.4579999999999997
3907,4126,0.44249999999999545,0.4500000000000455,0.44249999999999545,0.4450000000000121,In2Cl6,0.0,-1.139,3.761,-25.348,8,2,2.914,37.442,25.0,8.5,2.815
3908,4127,0.13000000000001677,0.13000000000001677,0.13000000000001677,0.13000000000001677,In2F6,0.038,-2.589,4.963,-35.755,8,2,2.245,28.404,19.0,8.5,3.4299999999999997
3909,4128,0.31999999999993634,0.31999999999993634,0.31999999999993634,0.31999999999993634,In2I6,0.004,-0.513,1.597,-18.502,8,2,3.439,48.357,52.0,16.0,2.44
3910,4129,0.5600000000000591,0.5600000000000591,0.5600000000000591,0.5600000000000591,Ir2Br6,0.0,-0.339,1.567,-30.769,8,2,2.782,36.261,45.5,15.0,2.7699999999999996
3911,4130,1.1599999999999682,1.1599999999999682,1.1599999999999682,1.1599999999999682,Ir2Cl6,0.0,-0.55,1.823,-33.658,8,2,2.585,32.54,32.0,7.5,2.92
3912,4131,1.365000000000009,1.365000000000009,1.365000000000009,1.365000000000009,Ir2F6,0.033,-1.409,1.632,-39.347,8,2,2.036,25.363,26.0,7.5,3.535
3913,4132,0.5325000000000273,0.5325000000000273,0.5325000000000273,0.5325000000000273,Ir2I6,0.0,-0.157,1.358,-28.675,8,2,3.007,41.799,59.0,15.0,2.545
3914,4133,1.5,1.5,1.5,1.5,Cu2Br2C6N2F8,0.086,-0.933,0.346,-113.897,20,5,6.475,37.201,12.5,7.3,3.147
3915,4134,1.5,1.5,1.5,1.5,Cu2Cl2C6N2F8,0.087,-0.961,0.412,-114.852,20,5,6.356,36.329,10.7,6.3,3.1670000000000003
3916,4135,0.34750000000008185,0.35999999999989996,0.36750000000006366,0.3583333333333485,Cu2Cl2C6N2H8,0.076,-0.19,0.813,-113.35,20,5,5.959,34.731,7.5,3.9,2.455
3917,4136,1.00750000000005,1.00750000000005,1.00750000000005,1.00750000000005,Mn2Cl6,0.073,-0.833,0.039,-36.808,8,2,2.639,30.155,19.0,7.0,2.7575000000000003
3918,4137,1.5,1.5,1.5,1.5,I2Cu2C6N2F8,0.09,-0.9,0.218,-113.032,20,5,6.528,38.894,14.3,7.3,3.117
3919,4138,0.3674999999998363,0.3774999999998272,0.38999999999987267,0.3783333333331787,I2Cu2C6N2H8,0.166,-0.134,0.838,-111.602,20,5,5.791,38.332,11.1,4.9,2.4050000000000002
3920,4139,0.8075000000000045,0.8075000000000045,0.8075000000000045,0.8075000000000045,I6Mn2,0.038,-0.289,0.0,-30.618,8,2,3.735,41.354,46.0,14.5,2.3825000000000003
3921,4140,1.4250000000000682,1.4250000000000682,1.4250000000000682,1.4250000000000682,Mo2Br6,0.03,-0.578,1.199,-36.539,8,2,2.972,38.685,36.75,14.25,2.76
3922,4141,1.5399999999999636,1.550000000000182,1.550000000000182,1.5466666666667759,Pt3PdSeSCl6,0.09,-0.373,0.53,-45.632,12,5,3.361,52.392,36.0,8.666666666666666,2.7608333333333337
3923,4142,1.8974999999999227,1.8974999999999227,1.8974999999999227,1.8974999999999227,Mo2Cl6,0.0,-0.918,0.639,-40.462,8,2,3.441,30.102,23.25,6.75,2.91
3924,4143,1.669999999999959,1.669999999999959,1.669999999999959,1.669999999999959,Mo2Cl6,0.139,-0.78,0.507,-39.351,8,2,3.106,27.057,23.25,6.75,2.91
3925,4144,1.3900000000001,1.3900000000001,1.3900000000001,1.3900000000001,Mo2F6,0.0,-2.405,0.597,-51.166,8,2,2.659,18.382,17.25,6.75,3.525
3926,4145,1.4125000000001364,1.4125000000001364,1.4125000000001364,1.4125000000001364,Mo2F6,0.095,-2.31,1.745,-50.406,8,2,2.726,18.645,17.25,6.75,3.525
3927,4146,0.3199999999999932,0.4200000000000159,0.4200000000000159,0.386666666666675,Mo2H6,0.086,0.086,0.0,-41.665,8,2,4.143,9.148,11.25,2.25,2.1900000000000004
3928,4147,1.1725000000000136,1.1725000000000136,1.1725000000000136,1.1725000000000136,Mo2I6,0.101,-0.211,0.977,-32.963,8,2,3.22,44.739,50.25,14.25,2.535
3929,4148,17.897500000000036,17.897500000000036,17.897500000000036,17.897500000000036,CdGaAlS4,0.092,-0.752,0.713,-29.142,7,4,9.287,12.5,22.285714285714285,7.428571428571429,2.204285714285714
3930,4149,11.772500000000036,11.772500000000036,11.772500000000036,11.772500000000036,CdInAlS4,0.092,-0.718,0.906,-28.77,7,4,9.505,13.102,24.857142857142858,7.428571428571429,2.2
3931,4150,0.3525000000000773,0.33749999999997726,0.3224999999999909,0.3375000000000152,Mo2O6,0.0,-2.003,2.067,-69.176,8,2,6.341,14.485,16.5,6.0,3.12
3932,4151,14.182500000000005,14.182500000000005,14.182500000000005,14.182500000000005,CdInSe4Al,0.087,-0.621,0.301,-25.709,7,4,10.068,14.416,35.142857142857146,13.142857142857142,2.1828571428571424
3933,4152,0.8300000000000409,0.8300000000000409,0.8300000000000409,0.8300000000000409,Nb2Br6,0.045,-0.917,0.109,-37.5,8,2,3.733,34.842,36.5,14.0,2.6199999999999997
3934,4153,0.5275000000000318,0.5375000000000227,0.5599999999999454,0.5416666666666666,Nb2I6,0.159,-0.363,0.0,-32.429,8,2,3.588,39.819,50.0,14.0,2.395
3935,4154,16.96750000000003,16.96750000000003,16.96750000000003,16.96750000000003,CdInGaS4,0.075,-0.591,0.412,-27.046,7,4,9.565,13.249,27.428571428571427,8.857142857142858,2.2285714285714286
3936,4155,0.5724999999999909,0.31999999999993634,0.34749999999996817,0.41333333333329847,Nb2Se6,0.037,-0.666,0.0,-46.88,8,2,6.167,18.618,35.75,13.25,2.3125
3937,4156,13.75,13.75,13.75,13.75,CdInGaSe4,0.076,-0.541,0.038,-24.31,7,4,10.101,14.56,37.714285714285715,14.571428571428571,2.2114285714285713
3938,4157,15.917500000000018,15.917500000000018,15.917500000000018,15.917500000000018,TlCdInS4,0.09,-0.418,0.324,-25.425,7,4,9.86,14.149,34.57142857142857,8.857142857142858,2.2614285714285716
3939,4158,18.392499999999984,18.392499999999984,18.392499999999984,18.392499999999984,TlCdInSe4,0.069,-0.417,0.033,-23.035,7,4,10.404,15.454,44.857142857142854,14.571428571428571,2.244285714285714
3940,4159,0.4700000000000273,0.5850000000000364,0.4900000000000091,0.5150000000000242,I6Ni2,0.014,-0.084,0.0,-24.034,8,2,3.076,40.488,46.75,15.25,2.4725
3941,4160,0.8550000000000182,0.8550000000000182,0.8550000000000182,0.8550000000000182,Ni2S6,0.134,-0.091,0.0,-39.691,8,2,7.498,15.44,19.0,7.0,2.4125
3942,4161,0.5324999999999136,0.5849999999999227,0.6724999999999,0.5966666666665787,Te6Ni2,0.077,-0.104,0.0,-34.553,8,2,7.477,19.415,46.0,14.5,2.0525
3943,4162,4.865000000000009,4.865000000000009,4.865000000000009,4.865000000000009,Ir2S2Cl2,0.052,-0.448,1.141,-32.967,6,3,2.697,22.087,36.666666666666664,7.333333333333333,2.646666666666667
3944,4163,0.7574999999999363,0.5499999999999545,0.3849999999999909,0.5641666666666273,Te6Ni2,0.16,-0.02,0.0,-33.887,8,2,6.018,24.473,46.0,14.5,2.0525
3945,4164,1.2674999999999272,1.2674999999999272,1.2674999999999272,1.2674999999999272,Os2Cl6,0.062,-0.318,0.063,-35.638,8,2,2.653,31.791,31.75,7.25,2.92
3946,4165,0.4375,0.5575000000000045,0.4874999999999545,0.49416666666665304,Os2I6,0.176,0.176,0.0,-29.842,8,2,3.037,42.815,58.75,14.75,2.545
3947,4166,6.7999999999999545,6.7999999999999545,6.7999999999999545,6.7999999999999545,Ir2Se2Cl2,0.034,-0.396,1.187,-31.462,6,3,2.628,23.465,42.666666666666664,10.666666666666666,2.6366666666666667
3948,4167,0.04250000000001819,0.08249999999998181,0.04250000000001819,0.0558333333333394,K6P2,0.087,-0.143,0.004,-19.187,8,2,4.478,50.294,18.0,2.0,1.1625
3949,4168,0.24250000000006366,0.11999999999989086,0.11999999999989086,0.16083333333328179,Al2S2O8H2,0.04,-1.793,5.129,-88.38,14,4,3.708,25.821,8.857142857142858,4.857142857142857,2.8785714285714286
3950,4169,0.5824999999999818,0.1675000000000182,0.05999999999994543,0.2699999999999818,Se2Al2O8H2,0.0,-1.652,4.476,-85.207,14,4,3.947,26.692,11.428571428571429,6.285714285714286,2.8742857142857146
3951,4170,0.6324999999999363,0.2625000000000455,0.1875,0.3608333333333273,Te2Al2O8H2,0.048,-1.736,3.86,-85.828,14,4,4.195,27.518,14.0,6.285714285714286,2.8099999999999996
3952,4171,2.3700000000000045,2.3700000000000045,2.3700000000000045,2.3700000000000045,Pb2Te6,0.129,-0.082,0.268,-27.401,8,2,6.867,30.615,59.5,15.5,2.1575
3953,4172,1.5049999999998818,1.5049999999998818,1.5049999999998818,1.5049999999998818,Pd2F6,0.04,-1.326,0.425,-27.77,8,2,3.25,25.419,18.25,7.75,3.535
3954,4173,1.357499999999959,0.6599999999999682,0.8324999999999818,0.9499999999999696,Pd2Se6,0.092,-0.126,0.0,-29.546,8,2,6.076,22.486,37.0,14.5,2.4625
3955,4174,1.4125000000001364,1.4125000000001364,1.4125000000001364,1.4125000000001364,Pt2F6,0.059,-1.243,0.758,-32.175,8,2,2.078,27.974,26.25,7.75,3.5549999999999997
3956,4175,1.197499999999991,0.5024999999999409,0.6749999999999545,0.7916666666666288,Pt2Se6,0.18,-0.13,0.0,-34.643,8,2,5.856,22.682,45.0,14.5,2.4825
3957,4176,0.8274999999999864,0.8125,0.7200000000000273,0.7866666666666712,Pt2Te6,0.176,-0.139,0.0,-33.047,8,2,6.307,26.077,58.5,14.5,2.145
3958,4177,0.6374999999999318,0.6374999999999318,0.6374999999999318,0.6374999999999318,Re2Br6,0.0,-0.095,0.135,-33.583,8,2,2.95,35.596,45.0,14.5,2.695
3959,4178,0.6800000000000637,0.6800000000000637,0.6800000000000637,0.6800000000000637,Rh2Br6,0.0,-0.495,1.344,-27.761,8,2,2.817,35.889,37.5,15.0,2.7899999999999996
3960,4179,1.2899999999999636,1.2899999999999636,1.2899999999999636,1.2899999999999636,Rh2Cl6,0.0,-0.682,1.59,-30.462,8,2,2.628,32.124,24.0,7.5,2.94
3961,4180,1.4375,1.4375,1.4375,1.4375,Rh2F6,0.0,-1.65,1.13,-37.012,8,2,2.443,22.702,18.0,7.5,3.5549999999999997
3962,4181,1.4700000000000273,1.4700000000000273,1.4700000000000273,1.4700000000000273,Rh2F6,0.018,-1.632,1.488,-36.87,8,2,2.126,24.311,18.0,7.5,3.5549999999999997
3963,4182,0.4275000000000091,0.47249999999996817,0.4275000000000091,0.44249999999999545,Rh2I6,0.0,-0.313,0.991,-25.669,8,2,3.036,41.634,51.0,15.0,2.565
3964,4183,0.17499999999995453,0.35999999999989996,0.2599999999999909,0.26499999999994844,Ru2Br6,0.017,-0.308,0.0,-30.896,8,2,2.842,36.697,37.25,14.75,2.7699999999999996