,ind,max_valorX,max_valorY,max_valorZ,media,formula,Ehull,HF,Gap,Energy,natoms,nspecies,thickness,uc_area,average_atomic_number,average_valence_number,average_electronegativity
237,241,61.9,61.9,61.9,61.9,Hf3S2N2,0.043,-1.606,0.0,-58.621,7,3,8.362,9.647,37.42857142857143,4.857142857142857,2.162857142857143
238,242,1.1525000000001455,1.1525000000001455,1.1525000000001455,1.1525000000001455,Ru2F8,0.0,-1.855,0.628,-50.168,10,2,3.407,26.731,16.0,7.2,3.624
239,243,0.7425000000000637,0.6525000000001455,0.6575000000000273,0.6841666666667455,Ru2Na2S2Cl10N2,0.062,-0.641,0.429,-75.792,18,5,9.46,42.759,18.11111111111111,6.111111111111111,2.727777777777778
240,244,1.3450000000000273,1.3450000000000273,1.3450000000000273,1.3450000000000273,Os2Rb2Cl10N2O2,0.0,-0.896,0.411,-85.129,18,5,9.807,45.017,23.666666666666668,6.111111111111111,2.8111111111111113
241,245,0.3450000000000273,0.3149999999999409,0.2925000000000182,0.31749999999999545,Ti3S2N2,0.023,-1.495,0.087,-55.398,7,3,7.947,8.391,16.0,4.857142857142857,2.265714285714286
242,246,1.4874999999999545,1.4874999999999545,1.4874999999999545,1.4874999999999545,V2F8,0.0,-2.928,0.597,-59.016,10,2,3.271,26.656,11.8,6.6,3.5100000000000002
243,247,0.6724999999999,0.6649999999999636,0.6674999999997908,0.6683333333332181,Rb2Ru2Cl10N2O2,0.0,-0.876,0.433,-81.318,18,5,9.75,44.238,20.11111111111111,6.111111111111111,2.8111111111111113
244,248,0.30750000000000455,0.3525000000000773,0.32000000000005,0.3266666666667106,Zr3S2N2,0.049,-1.645,0.0,-58.587,7,3,8.408,9.797,23.714285714285715,4.857142857142857,2.1757142857142857
245,249,0.9400000000000546,0.9400000000000546,0.9550000000000409,0.94500000000005,Mn3Se2S2,0.092,-0.388,0.0,-46.989,7,3,9.55,12.147,25.0,9.285714285714286,2.13
246,250,0.125,0.125,0.125,0.125,Rb2Ru2N2O2F10,0.0,-1.916,0.944,-98.059,18,5,10.211,29.003,15.666666666666666,6.111111111111111,3.2666666666666666
247,251,2.0800000000001546,2.0800000000001546,2.0800000000001546,2.0800000000001546,Cu4S6Cl4,0.146,-0.181,0.342,-48.842,14,3,7.703,45.444,20.0,7.714285714285714,2.551428571428571
248,252,0.6525000000001455,0.6525000000001455,0.6525000000001455,0.6525000000001455,Os2Rb2S2Cl10N2,0.0,-0.725,0.356,-79.955,18,5,10.054,45.72,24.555555555555557,6.111111111111111,2.7155555555555555
249,253,0.6799999999998363,0.6799999999998363,0.6799999999998363,0.6799999999998363,Os2Rb2S2N2F10,0.0,-1.791,0.865,-97.173,18,5,11.0,30.002,20.11111111111111,6.111111111111111,3.171111111111111
250,254,0.30500000000006366,0.20499999999992724,0.25250000000005457,0.2541666666666818,Rb2Ru2S2Cl10N2,0.023,-0.71,0.3,-76.232,18,5,9.759,44.157,21.0,6.111111111111111,2.7155555555555555
251,255,0.24250000000029104,0.2725000000000364,0.21500000000014552,0.24333333333349097,Rb2Ru2S2N2F10,0.037,-1.738,0.92,-92.764,18,5,10.562,29.864,16.555555555555557,6.111111111111111,3.171111111111111
252,269,11.067499999999995,11.067499999999995,11.067499999999995,11.067499999999995,Sr3Ag2I2O4,0.015,-1.603,0.0,-51.791,11,4,10.184,18.115,31.454545454545453,7.818181818181818,2.3445454545454543
253,270,10.932500000000005,10.932500000000005,10.932500000000005,10.932500000000005,Sr3Ag2I2S4,0.09,-1.194,0.0,-43.1,11,4,10.621,23.622,34.36363636363637,7.818181818181818,2.0318181818181817
254,271,0.8174999999998818,1.0299999999999727,0.9349999999999454,0.9274999999999333,Nb8BrCl7C4,0.0,-1.024,0.0,-154.047,20,4,5.899,38.799,25.3,6.1,2.404
255,272,61.9,61.9,61.9,61.9,Hf2Se10,0.0,-0.69,0.337,-58.119,12,2,5.243,46.24,40.333333333333336,14.0,2.341666666666667
256,273,61.9,61.9,61.9,61.9,Hf2Te10,0.0,-0.455,0.159,-52.522,12,2,5.298,55.587,55.333333333333336,14.0,1.9666666666666668
257,274,0.727500000000191,0.587500000000091,0.5575000000001182,0.6241666666668001,Zr2Se10,0.0,-0.727,0.304,-58.362,12,2,5.321,46.482,35.0,14.0,2.3466666666666667
258,275,0.9474999999999909,0.849999999999909,0.8299999999999272,0.8758333333332757,Zr2Te10,0.0,-0.514,0.191,-53.026,12,2,5.352,55.788,50.0,14.0,1.9716666666666667
259,276,1.0774999999998727,1.0774999999998727,1.0774999999998727,1.0774999999998727,PdCo5S12,0.096,-0.277,0.0,-98.879,18,3,2.724,55.683,20.72222222222222,7.055555555555555,2.3644444444444446
260,277,0.34749999999996817,0.32499999999998863,0.3675000000000068,0.3466666666666545,ISeAl,0.073,-0.713,1.427,-10.838,3,3,3.126,12.629,33.333333333333336,12.0,2.2733333333333334
261,278,0.38249999999993634,0.40249999999991815,0.3874999999998181,0.3908333333332242,Au2I2Se3P4,0.097,-0.009,1.348,-41.22,11,4,4.499,59.706,38.72727272727273,11.272727272727273,2.4372727272727275
262,279,0.5474999999999,0.5474999999999,0.5474999999999,0.5474999999999,Ca3Cu2Br2O4,0.0,-1.892,0.0,-57.865,11,4,9.255,15.121,20.0,7.818181818181818,2.407272727272727
263,280,1.599999999999909,1.599999999999909,1.599999999999909,1.599999999999909,Cu2As4Br2S3,0.038,-0.207,1.17,-43.683,11,4,4.33,44.416,28.0,12.181818181818182,2.38
264,281,2.2825000000000273,2.2825000000000273,2.2825000000000273,2.2825000000000273,Cu2Br2P4S3,0.03,-0.206,1.231,-46.475,11,4,4.244,42.607,21.454545454545453,8.545454545454545,2.3836363636363633
265,282,1.6050000000000182,1.6050000000000182,1.6050000000000182,1.6050000000000182,Sb4Cu2Br2S3,0.098,-0.212,1.041,-42.711,11,4,4.538,46.87,34.54545454545455,12.181818181818182,2.332727272727273
266,283,1.0574999999998909,1.0574999999998909,1.0574999999998909,1.0574999999998909,Cu2As4Se3Br2,0.038,-0.178,0.96,-41.581,11,4,4.429,48.131,32.90909090909091,14.909090909090908,2.3718181818181816
267,284,1.675000000000182,1.675000000000182,1.675000000000182,1.675000000000182,Cu2Se3Br2P4,0.04,-0.148,0.96,-44.054,11,4,4.331,46.598,26.363636363636363,11.272727272727273,2.375454545454545
268,285,1.1375000000000455,1.1375000000000455,1.1375000000000455,1.1375000000000455,Sb4Cu2Se3Br2,0.094,-0.189,0.911,-40.671,11,4,4.625,50.462,39.45454545454545,14.909090909090908,2.3245454545454547
269,286,0.4774999999999636,0.44499999999993634,0.44499999999993634,0.45583333333327875,Sr3Cu2Br2O4,0.0,-1.882,0.0,-56.749,11,4,9.849,15.882,24.90909090909091,7.818181818181818,2.3936363636363636
270,287,0.9924999999998363,0.9924999999998363,0.9924999999998363,0.9924999999998363,Te3Cu2As4Br2,0.045,-0.11,0.761,-40.001,11,4,4.461,54.346,37.81818181818182,14.909090909090908,2.2490909090909095
271,288,3.0,3.0,3.5950000000000273,3.1983333333333426,AsBrS,0.028,-0.256,1.387,-11.094,3,3,3.141,11.968,28.0,12.666666666666666,2.5733333333333337
272,289,1.0025000000000546,1.0025000000000546,1.0025000000000546,1.0025000000000546,Ca3Cu2Cl2O4,0.0,-1.968,0.0,-59.103,11,4,8.881,14.956,16.727272727272727,6.0,2.443636363636364
273,290,1.6100000000000136,1.599999999999966,1.599999999999966,1.603333333333315,AsSeBr,0.0,-0.294,1.228,-10.614,3,3,3.226,12.611,34.0,16.0,2.5633333333333335
274,291,1.9949999999998909,1.9949999999998909,1.9949999999998909,1.9949999999998909,Cu2As4S3Cl2,0.051,-0.257,1.198,-44.64,11,4,4.17,43.965,24.727272727272727,10.363636363636363,2.416363636363636
275,292,2.6724999999999,2.6724999999999,2.6724999999999,2.6724999999999,Cu2P4S3Cl2,0.069,-0.257,1.274,-47.44,11,4,4.086,42.288,18.181818181818183,6.7272727272727275,2.42
276,293,1.3024999999999523,1.294999999999959,1.294999999999959,1.2974999999999568,AsSeBr,0.161,-0.134,1.497,-10.132,3,3,3.506,11.959,34.0,16.0,2.5633333333333335
277,294,1.4799999999999613,1.482499999999959,1.482499999999959,1.4816666666666265,TeAsBr,0.0,-0.245,1.237,-10.186,3,3,3.309,13.734,40.0,16.0,2.4133333333333336
278,295,2.040000000000191,2.040000000000191,2.040000000000191,2.040000000000191,Cu2Se3P4Cl2,0.067,-0.197,1.012,-44.998,11,4,4.164,46.465,23.09090909090909,9.454545454545455,2.411818181818182
279,296,3.292500000000018,3.292500000000018,3.9600000000000364,3.515000000000024,TeAsBr,0.163,-0.082,1.064,-9.697,3,3,3.63,12.955,40.0,16.0,2.4133333333333336
280,297,0.9224999999999,0.9224999999999,0.9224999999999,0.9224999999999,Sr3Cu2Cl2O4,0.0,-1.966,0.0,-58.068,11,4,9.449,15.682,21.636363636363637,6.0,2.4299999999999997
281,298,1.920000000000016,1.912499999999966,1.9150000000000205,1.9158333333333342,AsSeCl,0.005,-0.382,1.373,-11.076,3,3,3.087,12.22,28.0,12.666666666666666,2.6300000000000003
282,299,1.509999999999991,1.5625,1.544999999999959,1.53916666666665,AsSCl,0.047,-0.352,1.535,-11.582,3,3,3.018,11.54,22.0,9.333333333333334,2.64
283,300,1.7549999999999955,1.7625000000000455,1.759999999999991,1.7591666666666772,TeAsCl,0.009,-0.322,1.479,-10.618,3,3,3.151,13.373,34.0,12.666666666666666,2.48
284,301,1.517499999999984,2.105000000000018,1.517499999999984,1.7133333333333287,IAsS,0.079,-0.108,1.336,-10.542,3,3,3.24,12.795,34.0,12.666666666666666,2.473333333333333
285,302,0.5375000000001364,0.5275000000001455,0.28500000000008185,0.45000000000012125,I2Ca3Cu2O4,0.0,-1.767,0.0,-56.284,11,4,9.761,15.448,23.272727272727273,7.818181818181818,2.352727272727273
286,303,1.4850000000000136,1.4750000000000227,1.4800000000000182,1.4800000000000182,IAsSe,0.019,-0.16,1.151,-10.104,3,3,3.35,13.405,40.0,16.0,2.4633333333333334
287,304,1.3775000000000546,1.3775000000000546,1.3775000000000546,1.3775000000000546,I2Cu2As4S3,0.043,-0.141,1.086,-42.75,11,4,4.536,45.284,31.272727272727273,12.181818181818182,2.325454545454546
288,305,2.0850000000000364,2.0850000000000364,2.0850000000000364,2.0850000000000364,I2Cu2P4S3,0.038,-0.141,1.131,-45.555,11,4,4.458,43.173,24.727272727272727,8.545454545454545,2.3290909090909095
289,306,1.365000000000009,1.365000000000009,1.365000000000009,1.365000000000009,Sb4I2Cu2S3,0.095,-0.145,0.988,-41.768,11,4,4.741,48.119,37.81818181818182,12.181818181818182,2.2781818181818183
290,307,0.8600000000001273,0.8600000000001273,0.8600000000001273,0.8600000000001273,I2Cu2As4Se3,0.036,-0.118,0.894,-40.703,11,4,4.655,48.441,36.18181818181818,14.909090909090908,2.3172727272727274
291,308,1.5074999999999363,1.5074999999999363,1.5074999999999363,1.5074999999999363,I2Cu2Se3P4,0.03,-0.088,0.879,-43.184,11,4,4.557,46.771,29.636363636363637,11.272727272727273,2.320909090909091
292,309,0.9375,0.9375,0.9375,0.9375,Sb4I2Cu2Se3,0.093,-0.128,0.884,-39.788,11,4,4.855,51.15,42.72727272727273,14.909090909090908,2.27
293,310,0.4624999999998636,0.43249999999989086,0.21499999999991815,0.36999999999989086,Sr3I2Cu2O4,0.0,-1.752,0.0,-55.1,11,4,10.424,16.193,28.181818181818183,7.818181818181818,2.339090909090909
294,311,1.5575000000000045,1.5575000000000045,1.5575000000000045,1.5575000000000045,Sr3I2Cu2S4,0.079,-1.262,0.0,-45.523,11,4,10.991,21.575,31.09090909090909,7.818181818181818,2.0263636363636364
295,312,0.7899999999999636,0.7899999999999636,0.7899999999999636,0.7899999999999636,Te3I2Cu2As4,0.04,-0.052,0.693,-39.151,11,4,4.693,54.693,41.09090909090909,14.909090909090908,2.194545454545455
296,313,1.419999999999959,1.4149999999999636,1.412499999999966,1.4158333333332962,TeIAs,0.0,-0.124,0.982,-9.718,3,3,3.464,14.471,46.0,16.0,2.313333333333333
297,314,1.087500000000034,1.087500000000034,1.087500000000034,1.087500000000034,TeIAs,0.162,0.038,0.329,-9.233,3,3,3.807,13.59,46.0,16.0,2.313333333333333
298,315,0.3774999999999977,0.3774999999999977,0.3774999999999977,0.3774999999999977,BaBrCl,0.084,-2.354,5.091,-12.261,3,3,2.952,20.61,36.0,8.666666666666666,2.3366666666666664
299,316,0.9474999999999909,0.9474999999999909,0.9474999999999909,0.9474999999999909,BaIBr,0.042,-2.01,4.137,-10.921,3,3,3.347,22.246,48.0,12.0,2.17
300,317,0.8025000000000091,0.8025000000000091,0.8025000000000091,0.8025000000000091,BaICl,0.075,-2.149,4.103,-11.539,3,3,3.233,21.222,42.0,8.666666666666666,2.236666666666667
301,318,4.767499999999984,4.767499999999984,4.767499999999984,4.767499999999984,BiBrS,0.009,-0.557,0.891,-12.009,3,3,3.352,14.61,44.666666666666664,12.666666666666666,2.52
302,319,1.6899999999999977,1.6899999999999977,1.6899999999999977,1.6899999999999977,BiBrS,0.124,-0.442,1.188,-11.661,3,3,3.606,13.823,44.666666666666664,12.666666666666666,2.52
303,320,2.4375,2.4375,2.4375,2.4375,BiSeBr,0.0,-0.583,0.733,-11.489,3,3,3.461,15.194,50.666666666666664,16.0,2.5100000000000002
304,321,2.1649999999999636,2.1649999999999636,2.1649999999999636,2.1649999999999636,BiSeBr,0.111,-0.471,1.02,-11.155,3,3,3.714,14.396,50.666666666666664,16.0,2.5100000000000002
305,322,2.482500000000016,2.482500000000016,2.482500000000016,2.482500000000016,BiTeBr,0.0,-0.504,0.591,-10.975,3,3,3.565,16.337,56.666666666666664,16.0,2.36
306,323,2.150000000000034,2.150000000000034,2.150000000000034,2.150000000000034,BiTeBr,0.117,-0.387,0.529,-10.625,3,3,3.854,15.436,56.666666666666664,16.0,2.36
307,324,2.2875000000000227,2.2875000000000227,2.2875000000000227,2.2875000000000227,BiSCl,0.01,-0.658,1.002,-12.511,3,3,3.186,14.333,38.666666666666664,9.333333333333334,2.5866666666666664
308,325,2.0324999999999704,2.0324999999999704,2.0324999999999704,2.0324999999999704,BiSCl,0.13,-0.538,1.43,-12.151,3,3,3.456,13.49,38.666666666666664,9.333333333333334,2.5866666666666664
309,326,2.8775000000000546,2.8775000000000546,2.8775000000000546,2.8775000000000546,BiSeCl,0.0,-0.681,0.851,-11.985,3,3,3.286,14.887,44.666666666666664,12.666666666666666,2.5766666666666667
310,327,5.972499999999968,5.972499999999968,5.972499999999968,5.972499999999968,BiSeCl,0.119,-0.561,1.235,-11.626,3,3,3.557,14.057,44.666666666666664,12.666666666666666,2.5766666666666667
311,328,2.8700000000000045,2.8700000000000045,2.8700000000000045,2.8700000000000045,BiTeCl,0.01,-0.598,0.599,-11.458,3,3,3.377,16.04,50.666666666666664,12.666666666666666,2.4266666666666667
312,329,2.4424999999999955,2.4424999999999955,2.4424999999999955,2.4424999999999955,BiTeCl,0.139,-0.468,0.531,-11.069,3,3,3.69,15.141,50.666666666666664,12.666666666666666,2.4266666666666667
313,330,1.3700000000000045,1.3700000000000045,1.3700000000000045,1.3700000000000045,BiSF,0.041,-1.292,1.447,-14.215,3,3,2.571,13.346,36.0,9.333333333333334,2.86
314,331,2.355000000000018,2.355000000000018,2.857500000000016,2.5225000000000173,BiSeF,0.041,-1.305,1.258,-13.658,3,3,2.654,13.846,42.0,12.666666666666666,2.85
315,332,1.7074999999999818,1.7074999999999818,1.7074999999999818,1.7074999999999818,BiTeF,0.065,-1.191,0.584,-13.04,3,3,2.752,14.798,48.0,12.666666666666666,2.6999999999999997
316,333,2.1225000000000023,2.1225000000000023,2.1225000000000023,2.1225000000000023,BiIS,0.014,-0.412,0.777,-11.467,3,3,3.515,15.226,50.666666666666664,12.666666666666666,2.42
317,334,1.5649999999999977,1.5649999999999977,1.5649999999999977,1.5649999999999977,BiIS,0.14,-0.287,0.401,-11.091,3,3,3.783,14.466,50.666666666666664,12.666666666666666,2.42
318,335,2.302500000000009,2.302500000000009,2.302500000000009,2.302500000000009,BiISe,0.0,-0.443,0.607,-10.964,3,3,3.642,15.808,56.666666666666664,16.0,2.4099999999999997
319,336,2.5400000000000205,2.5400000000000205,2.5400000000000205,2.5400000000000205,BiISe,0.114,-0.328,0.433,-10.62,3,3,3.903,14.992,56.666666666666664,16.0,2.4099999999999997
320,337,2.3950000000000387,2.3950000000000387,2.3950000000000387,2.3950000000000387,BiTeI,0.003,-0.371,0.412,-10.47,3,3,3.773,16.934,62.666666666666664,16.0,2.2600000000000002
321,338,2.1000000000000227,2.1000000000000227,2.1000000000000227,2.1000000000000227,BiTeI,0.113,-0.261,0.346,-10.14,3,3,4.06,15.98,62.666666666666664,16.0,2.2600000000000002
322,339,0.375,0.375,0.375,0.375,Ti4C3O2H2,0.097,-1.211,0.0,-84.639,11,4,11.696,8.275,11.272727272727273,3.8181818181818183,2.2809090909090908
323,340,0.7075000000000955,0.7075000000000955,0.7075000000000955,0.7075000000000955,Zr4C3O2H2,0.191,-1.274,0.0,-88.181,11,4,12.466,9.659,17.818181818181817,3.8181818181818183,2.2045454545454546
324,341,0.17000000000007276,0.17000000000007276,0.23250000000007276,0.1908333333334061,Cr4N3O2H2,0.107,-0.773,0.0,-88.089,11,4,11.031,7.927,12.272727272727273,4.818181818181818,2.458181818181818
325,343,61.9,61.9,61.9,61.9,HfBrCl,0.018,-1.337,0.832,-14.887,3,3,3.573,10.189,41.333333333333336,9.333333333333334,2.473333333333333
326,344,0.4600000000000364,0.4600000000000364,0.4600000000000364,0.4600000000000364,Sc4N3O2H2,0.135,-1.947,0.0,-82.015,11,4,12.034,8.905,11.181818181818182,3.727272727272727,2.3490909090909096
327,345,0.26249999999998863,0.2825000000000273,0.3199999999999932,0.2883333333333364,BrMgCl,0.007,-1.703,4.641,-10.095,3,3,2.876,12.377,21.333333333333332,8.666666666666666,2.4766666666666666
328,346,0.3650000000000091,0.3650000000000091,0.3650000000000091,0.3650000000000091,Ti4N3O2H2,0.074,-1.667,0.0,-87.05,11,4,11.64,7.924,11.545454545454545,4.090909090909091,2.4145454545454546
329,347,1.5824999999999818,1.5824999999999818,1.5824999999999818,1.5824999999999818,Y4N3O2H2,0.163,-1.842,0.0,-80.983,11,4,12.819,10.49,17.727272727272727,3.727272727272727,2.2981818181818183
330,348,0.4550000000000409,0.4550000000000409,0.4550000000000409,0.4550000000000409,NiBrCl,0.006,-0.517,0.951,-12.169,3,3,2.715,11.239,26.666666666666668,11.333333333333334,2.676666666666667
331,349,0.6800000000000068,0.6650000000000205,0.7150000000000318,0.6866666666666864,TiBrCl,0.035,-1.326,0.83,-14.038,3,3,3.277,9.891,24.666666666666668,9.333333333333334,2.5533333333333332
332,350,0.6599999999999682,0.6599999999999682,0.6599999999999682,0.6599999999999682,VBrCl,0.011,-1.009,1.289,-14.92,3,3,2.781,12.173,25.0,9.666666666666666,2.5833333333333335
333,352,0.6100000000000136,0.5850000000000364,0.6050000000000182,0.6000000000000227,ZrBrCl,0.01,-1.512,0.912,-15.31,3,3,3.532,10.537,30.666666666666668,9.333333333333334,2.4833333333333334
334,353,1.375,1.462500000000034,1.410000000000025,1.415833333333353,CoSeBr,0.013,-0.362,0.904,-14.383,3,3,2.72,10.452,32.0,14.0,2.4633333333333334
335,354,0.17000000000001592,0.2950000000000159,0.16250000000002274,0.20916666666668485,TeCoBr,0.015,-0.286,0.896,-13.876,3,3,2.791,11.429,38.0,14.0,2.313333333333333
336,355,61.9,61.9,61.9,61.9,HfIBr,0.089,-0.887,0.713,-13.23,3,3,3.794,11.498,53.333333333333336,12.666666666666666,2.3066666666666666
337,356,5.6025000000000205,2.464999999999975,2.464999999999975,3.5108333333333235,IBrMg,0.019,-1.288,3.155,-8.545,3,3,3.174,14.246,33.333333333333336,12.0,2.31
338,357,0.18250000000000455,0.6074999999999591,0.7224999999999682,0.5041666666666439,Ti4S2N3H2,0.168,-1.103,0.0,-78.751,11,4,12.941,8.532,13.0,4.090909090909091,2.2581818181818183
339,358,0.3149999999999977,0.29000000000002046,0.2674999999999841,0.2908333333333341,SrIBr,0.011,-1.947,4.109,-10.578,3,3,3.358,19.293,42.0,12.0,2.19
340,359,0.7824999999999704,0.7799999999999727,0.7925000000000182,0.7849999999999872,ITiBr,0.073,-0.877,0.679,-12.382,3,3,3.503,11.429,36.666666666666664,12.666666666666666,2.3866666666666667
341,360,0.7099999999999795,0.7099999999999795,0.7099999999999795,0.7099999999999795,IVBr,0.02,-0.657,1.188,-13.558,3,3,3.018,13.777,37.0,13.0,2.4166666666666665
342,361,0.6899999999999977,0.6850000000000023,0.6924999999999955,0.6891666666666652,ZrIBr,0.039,-1.086,0.774,-13.724,3,3,3.762,11.874,42.666666666666664,12.666666666666666,2.316666666666667
343,362,1.2549999999998818,1.2549999999998818,1.2549999999998818,1.2549999999998818,Ba3Mn2Br2O5,0.041,-2.198,0.0,-80.09,12,4,11.086,16.602,27.333333333333332,7.0,2.4075
344,363,1.947499999999991,1.947499999999991,1.947499999999991,1.947499999999991,Ba3Mn2Br2S5,0.052,-1.477,0.0,-66.197,12,4,11.669,22.318,30.666666666666668,7.0,2.049166666666667
345,364,0.7275000000000205,0.7375000000000114,0.7574999999999932,0.7408333333333417,IrSeBr,0.035,-0.301,1.26,-15.247,3,3,2.837,11.605,48.666666666666664,14.0,2.57
346,365,1.300000000000182,1.300000000000182,1.300000000000182,1.300000000000182,Sr3Mn2Br2O5,0.0,-2.244,0.0,-80.179,12,4,10.436,15.776,22.833333333333332,7.0,2.4225
347,366,0.5074999999999363,0.5149999999998727,0.43000000000006366,0.4841666666666242,Ba3Ni2Br2O5,0.001,-1.761,0.027,-69.902,12,4,11.379,15.848,27.833333333333332,7.5,2.4675
348,367,1.3174999999999955,1.3474999999999682,1.329999999999984,1.3316666666666492,SbBrS,0.054,-0.415,1.217,-11.315,3,3,3.313,13.777,34.0,12.666666666666666,2.53
349,368,1.1924999999999955,1.2224999999999682,1.204999999999984,1.2066666666666492,SbBrS,0.183,-0.287,1.426,-10.929,3,3,3.573,13.044,34.0,12.666666666666666,2.53